unknown system                          
   1.00000000000000     
     3.998359   -0.000000   -0.000000
     0.000000    4.057919    0.000000
     0.000000   -0.000000    4.057919
   Ba   Ti   O    H 
     1     1     2     1
Direct
 -0.000000  0.000000 -0.000000
  0.500000  0.500000  0.500000
  0.500000 -0.000000  0.500000
  0.500000  0.500000  0.000000
 -0.000000  0.500000  0.500000
 
   60   60   60
 0.52906651346E+01 0.80352546640E+01 0.15884930608E+02 0.27758804446E+02 0.42074677254E+02
 0.57019368389E+02 0.70831114081E+02 0.82037772683E+02 0.89615538318E+02 0.93057791990E+02
 0.92363078945E+02 0.87961024224E+02 0.80597306102E+02 0.71198165228E+02 0.60734354538E+02
 0.50103406036E+02 0.40045524305E+02 0.31100935498E+02 0.23606661984E+02 0.17705486948E+02
 0.13249481066E+02 0.99579752742E+01 0.75658219831E+01 0.58475749405E+01 0.46248540584E+01
 0.37635505235E+01 0.31662007293E+01 0.27635106707E+01 0.25073115470E+01 0.23657525003E+01
 0.23205575979E+01 0.23657525003E+01 0.25073115470E+01 0.27635106707E+01 0.31662007293E+01
 0.37635505235E+01 0.46248540584E+01 0.58475749405E+01 0.75658219831E+01 0.99579752742E+01
 0.13249481066E+02 0.17705486948E+02 0.23606661984E+02 0.31100935498E+02 0.40045524305E+02
 0.50103406036E+02 0.60734354538E+02 0.71198165228E+02 0.80597306102E+02 0.87961024224E+02
 0.92363078945E+02 0.93057791990E+02 0.89615538318E+02 0.82037772683E+02 0.70831114081E+02
 0.57019368389E+02 0.42074677254E+02 0.27758804446E+02 0.15884930608E+02 0.80352546640E+01
 0.80766498480E+01 0.10754461510E+02 0.18411379464E+02 0.29987813882E+02 0.43932722505E+02
 0.58468659515E+02 0.71868806392E+02 0.82690870826E+02 0.89933194700E+02 0.93102734848E+02
 0.92203505107E+02 0.87663757964E+02 0.80222571811E+02 0.70796104688E+02 0.60343264183E+02
 0.49749576806E+02 0.39744406426E+02 0.30859184744E+02 0.23424538862E+02 0.17577166620E+02
 0.13162939301E+02 0.99025414299E+01 0.75329399932E+01 0.58307509303E+01 0.46193439663E+01
 0.37659605850E+01 0.31741088955E+01 0.27751579547E+01 0.25213713826E+01 0.23811645291E+01
 0.23364052224E+01 0.23811645291E+01 0.25213713826E+01 0.27751579547E+01 0.31741088955E+01
 0.37659605850E+01 0.46193439663E+01 0.58307509303E+01 0.75329399932E+01 0.99025414299E+01
 0.13162939301E+02 0.17577166620E+02 0.23424538862E+02 0.30859184744E+02 0.39744406426E+02
 0.49749576806E+02 0.60343264183E+02 0.70796104688E+02 0.80222571811E+02 0.87663757964E+02
 0.92203505107E+02 0.93102734848E+02 0.89933194700E+02 0.82690870826E+02 0.71868806392E+02
 0.58468659515E+02 0.43932722505E+02 0.29987813882E+02 0.18411379464E+02 0.10754461510E+02
 0.16036540700E+02 0.18521733340E+02 0.25622636550E+02 0.36341099306E+02 0.49215977094E+02
 0.62572987279E+02 0.74786282779E+02 0.84499931897E+02 0.90776472116E+02 0.93162307666E+02
 0.91677408536E+02 0.86746061021E+02 0.79088120725E+02 0.69590309189E+02 0.59176941592E+02
 0.48698504448E+02 0.38852754207E+02 0.30145529478E+02 0.22888882964E+02 0.17200801504E+02
 0.12909882608E+02 0.97412720544E+01 0.74382297815E+01 0.57834695726E+01 0.46055170906E+01
 0.37755844783E+01 0.32000343268E+01 0.28121830798E+01 0.25655649982E+01 0.24293784644E+01
 0.23859146591E+01 0.24293784644E+01 0.25655649982E+01 0.28121830798E+01 0.32000343268E+01
 0.37755844783E+01 0.46055170906E+01 0.57834695726E+01 0.74382297815E+01 0.97412720544E+01
 0.12909882608E+02 0.17200801504E+02 0.22888882964E+02 0.30145529478E+02 0.38852754207E+02
 0.48698504448E+02 0.59176941592E+02 0.69590309189E+02 0.79088120725E+02 0.86746061021E+02
 0.91677408536E+02 0.93162307666E+02 0.90776472116E+02 0.84499931897E+02 0.74786282779E+02
 0.62572987279E+02 0.49215977094E+02 0.36341099306E+02 0.25622636550E+02 0.18521733340E+02
 0.28051648717E+02 0.30240042944E+02 0.36484207831E+02 0.45880684275E+02 0.57106966457E+02
 0.68648044373E+02 0.79034239033E+02 0.87043537902E+02 0.91838377577E+02 0.93026823078E+02
 0.90653932244E+02 0.85137811630E+02 0.77168016334E+02 0.67584763357E+02 0.57257701683E+02
 0.46982017184E+02 0.37405720952E+02 0.28994515219E+02 0.22031444806E+02 0.16601475068E+02
 0.12509436919E+02 0.94887905715E+01 0.72931072742E+01 0.57149700460E+01 0.45911919503E+01
 0.37993413849E+01 0.32503403992E+01 0.28806139030E+01 0.26457257104E+01 0.25161269732E+01
 0.24747875044E+01 0.25161269732E+01 0.26457257104E+01 0.28806139030E+01 0.32503403992E+01
 0.37993413849E+01 0.45911919503E+01 0.57149700460E+01 0.72931072742E+01 0.94887905715E+01
 0.12509436919E+02 0.16601475068E+02 0.22031444806E+02 0.28994515219E+02 0.37405720952E+02
 0.46982017184E+02 0.57257701683E+02 0.67584763357E+02 0.77168016334E+02 0.85137811630E+02
 0.90653932244E+02 0.93026823078E+02 0.91838377577E+02 0.87043537902E+02 0.79034239033E+02
 0.68648044373E+02 0.57106966457E+02 0.45880684275E+02 0.36484207831E+02 0.30240042944E+02
 0.42488964774E+02 0.44307995330E+02 0.49485978050E+02 0.57237421972E+02 0.66412715168E+02
 0.75695826345E+02 0.83812706808E+02 0.89709741819E+02 0.92675594052E+02 0.92396657013E+02
 0.88949986327E+02 0.82745631365E+02 0.74433911864E+02 0.64794787426E+02 0.54627147525E+02
 0.44654810349E+02 0.35461882423E+02 0.27462800306E+02 0.20903602118E+02 0.15818693877E+02
 0.11991608276E+02 0.91679685202E+01 0.71153868548E+01 0.56396537482E+01 0.45885617810E+01
 0.38480477627E+01 0.33350138380E+01 0.29899544997E+01 0.27710904393E+01 0.26505149488E+01
 0.26120890763E+01 0.26505149488E+01 0.27710904393E+01 0.29899544997E+01 0.33350138380E+01
 0.38480477627E+01 0.45885617810E+01 0.56396537482E+01 0.71153868548E+01 0.91679685202E+01
 0.11991608276E+02 0.15818693877E+02 0.20903602118E+02 0.27462800306E+02 0.35461882423E+02
 0.44654810349E+02 0.54627147525E+02 0.64794787426E+02 0.74433911864E+02 0.82745631365E+02
 0.88949986327E+02 0.92396657013E+02 0.92675594052E+02 0.89709741819E+02 0.83812706808E+02
 0.75695826345E+02 0.66412715168E+02 0.57237421972E+02 0.49485978050E+02 0.44307995330E+02
 0.57485255359E+02 0.58898480577E+02 0.62905198393E+02 0.68849911341E+02 0.75773811767E+02
 0.82581002276E+02 0.88214645028E+02 0.91808981824E+02 0.92794244027E+02 0.90945068862E+02
 0.86374433381E+02 0.79482476548E+02 0.70873610358E+02 0.61257601605E+02 0.51351235000E+02
 0.41795965514E+02 0.33102660928E+02 0.25627478273E+02 0.19571899012E+02 0.14903129763E+02
 0.11394718182E+02 0.88079656197E+01 0.69278138312E+01 0.55760077977E+01 0.46134303200E+01
 0.39359069784E+01 0.34673621424E+01 0.31530486374E+01 0.29542861966E+01 0.28450822010E+01
 0.28103369704E+01 0.28450822010E+01 0.29542861966E+01 0.31530486374E+01 0.34673621424E+01
 0.39359069784E+01 0.46134303200E+01 0.55760077977E+01 0.69278138312E+01 0.88079656197E+01
 0.11394718182E+02 0.14903129763E+02 0.19571899012E+02 0.25627478273E+02 0.33102660928E+02
 0.41795965514E+02 0.51351235000E+02 0.61257601605E+02 0.70873610358E+02 0.79482476548E+02
 0.86374433381E+02 0.90945068862E+02 0.92794244027E+02 0.91808981824E+02 0.88214645028E+02
 0.82581002276E+02 0.75773811767E+02 0.68849911341E+02 0.62905198393E+02 0.58898480577E+02
 0.71241887110E+02 0.72248009106E+02 0.75079991161E+02 0.79213648252E+02 0.83883293200E+02
 0.88216529964E+02 0.91377990947E+02 0.92694425893E+02 0.91741825017E+02 0.88385779982E+02
 0.82775574691E+02 0.75299153454E+02 0.66510391435E+02 0.57042786224E+02 0.47524651171E+02
 0.38509463652E+02 0.30430624202E+02 0.23583294488E+02 0.18112363597E+02 0.13912531571E+02
 0.10762368474E+02 0.84421241270E+01 0.67567419518E+01 0.55459311064E+01 0.46850740747E+01
 0.40808148530E+01 0.36646812704E+01 0.33870327378E+01 0.32124905775E+01 0.31170905274E+01
 0.30868307262E+01 0.31170905274E+01 0.32124905775E+01 0.33870327378E+01 0.36646812704E+01
 0.40808148530E+01 0.46850740747E+01 0.55459311064E+01 0.67567419518E+01 0.84421241270E+01
 0.10762368474E+02 0.13912531571E+02 0.18112363597E+02 0.23583294488E+02 0.30430624202E+02
 0.38509463652E+02 0.47524651171E+02 0.57042786224E+02 0.66510391435E+02 0.75299153454E+02
 0.82775574691E+02 0.88385779982E+02 0.91741825017E+02 0.92694425893E+02 0.91377990947E+02
 0.88216529964E+02 0.83883293200E+02 0.79213648252E+02 0.75079991161E+02 0.72248009106E+02
 0.82271076331E+02 0.82898591240E+02 0.84638627514E+02 0.87090850039E+02 0.89672147860E+02
 0.91722162780E+02 0.92616558745E+02 0.91866328095E+02 0.89187282339E+02 0.84531759100E+02
 0.78082015275E+02 0.70210729321E+02 0.61418316280E+02 0.52259531827E+02 0.43272632638E+02
 0.34922677746E+02 0.27566212456E+02 0.21438562648E+02 0.16604980311E+02 0.12907437965E+02
 0.10140575273E+02 0.81063501890E+01 0.66315730731E+01 0.55750560191E+01 0.48272911314E+01
 0.43060011014E+01 0.39503702672E+01 0.37158136671E+01 0.35701674886E+01 0.34914139754E+01
 0.34665935999E+01 0.34914139754E+01 0.35701674886E+01 0.37158136671E+01 0.39503702672E+01
 0.43060011014E+01 0.48272911314E+01 0.55750560191E+01 0.66315730731E+01 0.81063501890E+01
 0.10140575273E+02 0.12907437965E+02 0.16604980311E+02 0.21438562648E+02 0.27566212456E+02
 0.34922677746E+02 0.43272632638E+02 0.52259531827E+02 0.61418316280E+02 0.70210729321E+02
 0.78082015275E+02 0.84531759100E+02 0.89187282339E+02 0.91866328095E+02 0.92616558745E+02
 0.91722162780E+02 0.89672147860E+02 0.87090850039E+02 0.84638627514E+02 0.82898591240E+02
 0.89557145595E+02 0.89856395732E+02 0.90650646123E+02 0.91649809962E+02 0.92433701986E+02
 0.92531823236E+02 0.91509481267E+02 0.89043619664E+02 0.84975684933E+02 0.79334606119E+02
 0.72328889789E+02 0.64312043758E+02 0.55729557059E+02 0.47058194514E+02 0.38748843210E+02
 0.31182238362E+02 0.24642799529E+02 0.19302898135E+02 0.15128127076E+02 0.11947502606E+02
 0.95757651622E+01 0.78385265307E+01 0.65853384146E+01 0.56942759375E+01 0.50706843529E+01
 0.46429071323E+01 0.43572675006E+01 0.41737458273E+01 0.40629801699E+01 0.40045906763E+01
 0.39864702385E+01 0.40045906763E+01 0.40629801699E+01 0.41737458273E+01 0.43572675006E+01
 0.46429071323E+01 0.50706843529E+01 0.56942759375E+01 0.65853384146E+01 0.78385265307E+01
 0.95757651622E+01 0.11947502606E+02 0.15128127076E+02 0.19302898135E+02 0.24642799529E+02
 0.31182238362E+02 0.38748843210E+02 0.47058194514E+02 0.55729557059E+02 0.64312043758E+02
 0.72328889789E+02 0.79334606119E+02 0.84975684933E+02 0.89043619664E+02 0.91509481267E+02
 0.92531823236E+02 0.92433701986E+02 0.91649809962E+02 0.90650646123E+02 0.89856395732E+02
 0.92622914849E+02 0.92657327545E+02 0.92690002195E+02 0.92524055372E+02 0.91877327495E+02
 0.90440559707E+02 0.87940374075E+02 0.84194643421E+02 0.79150408050E+02 0.72898637733E+02
 0.65664853353E+02 0.57779015607E+02 0.49631619538E+02 0.41624988550E+02 0.34128858882E+02
 0.27447306023E+02 0.21800303837E+02 0.17271859335E+02 0.13754167734E+02 0.11089107096E+02
 0.91140364478E+01 0.76790768257E+01 0.66562701632E+01 0.59420836266E+01 0.54555777568E+01
 0.51345354394E+01 0.49313212434E+01 0.48095341545E+01 0.47418523463E+01 0.47089761739E+01
 0.46993103237E+01 0.47089761739E+01 0.47418523463E+01 0.48095341545E+01 0.49313212434E+01
 0.51345354394E+01 0.54555777568E+01 0.59420836266E+01 0.66562701632E+01 0.76790768257E+01
 0.91140364478E+01 0.11089107096E+02 0.13754167734E+02 0.17271859335E+02 0.21800303837E+02
 0.27447306023E+02 0.34128858882E+02 0.41624988550E+02 0.49631619538E+02 0.57779015607E+02
 0.65664853353E+02 0.72898637733E+02 0.79150408050E+02 0.84194643421E+02 0.87940374075E+02
 0.90440559707E+02 0.91877327495E+02 0.92524055372E+02 0.92690002195E+02 0.92657327545E+02
 0.91511479894E+02 0.91349345898E+02 0.90818868333E+02 0.89798166270E+02 0.88116276740E+02
 0.85593890559E+02 0.82087374466E+02 0.77527030551E+02 0.71942218687E+02 0.65468964598E+02
 0.58339360867E+02 0.50855645647E+02 0.43354722438E+02 0.36170346630E+02 0.29599935660E+02
 0.23880949101E+02 0.19165111998E+02 0.15427233839E+02 0.12546781388E+02 0.10384461485E+02
 0.88015438665E+01 0.76722516040E+01 0.68897066101E+01 0.63669004337E+01 0.60346424701E+01
 0.58382927146E+01 0.57345995279E+01 0.56893741055E+01 0.56762048037E+01 0.56760404653E+01
 0.56772862976E+01 0.56760404653E+01 0.56762048037E+01 0.56893741055E+01 0.57345995279E+01
 0.58382927146E+01 0.60346424701E+01 0.63669004337E+01 0.68897066101E+01 0.76722516040E+01
 0.88015438665E+01 0.10384461485E+02 0.12546781388E+02 0.15427233839E+02 0.19165111998E+02
 0.23880949101E+02 0.29599935660E+02 0.36170346630E+02 0.43354722438E+02 0.50855645647E+02
 0.58339360867E+02 0.65468964598E+02 0.71942218687E+02 0.77527030551E+02 0.82087374466E+02
 0.85593890559E+02 0.88116276740E+02 0.89798166270E+02 0.90818868333E+02 0.91349345898E+02
 0.86703601058E+02 0.86411208599E+02 0.85510210924E+02 0.83936080994E+02 0.81602807543E+02
 0.78430061782E+02 0.74372251359E+02 0.69443078567E+02 0.63730315979E+02 0.57397713182E+02
 0.50673746622E+02 0.43829725163E+02 0.37151889386E+02 0.30913038826E+02 0.25348665022E+02
 0.20637462233E+02 0.16824884912E+02 0.13834997425E+02 0.11560058559E+02 0.98818479012E+01
 0.86854095747E+01 0.78673959748E+01 0.73395429126E+01 0.70286378834E+01 0.68745641988E+01
 0.68277933871E+01 0.68472659712E+01 0.68991181579E+01 0.69562979244E+01 0.69988352402E+01
 0.70144056990E+01 0.69988352402E+01 0.69562979244E+01 0.68991181579E+01 0.68472659712E+01
 0.68277933871E+01 0.68745641988E+01 0.70286378834E+01 0.73395429126E+01 0.78673959748E+01
 0.86854095747E+01 0.98818479012E+01 0.11560058559E+02 0.13834997425E+02 0.16824884912E+02
 0.20637462233E+02 0.25348665022E+02 0.30913038826E+02 0.37151889386E+02 0.43829725163E+02
 0.50673746622E+02 0.57397713182E+02 0.63730315979E+02 0.69443078567E+02 0.74372251359E+02
 0.78430061782E+02 0.81602807543E+02 0.83936080994E+02 0.85510210924E+02 0.86411208599E+02
 0.78993391934E+02 0.78629874302E+02 0.77530138700E+02 0.75671037745E+02 0.73027603137E+02
 0.69590021572E+02 0.65381339143E+02 0.60471575235E+02 0.54984667461E+02 0.49096294763E+02
 0.43022685028E+02 0.37002569165E+02 0.31275858268E+02 0.26063029615E+02 0.21547599575E+02
 0.17817493522E+02 0.14840681533E+02 0.12544849013E+02 0.10838930667E+02 0.96263725100E+01
 0.88144817709E+01 0.83196020552E+01 0.80688154998E+01 0.79993556475E+01 0.80569721603E+01
 0.81942611658E+01 0.83696064678E+01 0.85469847839E+01 0.86965574124E+01 0.87957495439E+01
 0.88304210199E+01 0.87957495439E+01 0.86965574124E+01 0.85469847839E+01 0.83696064678E+01
 0.81942611658E+01 0.80569721603E+01 0.79993556475E+01 0.80688154998E+01 0.83196020552E+01
 0.88144817709E+01 0.96263725100E+01 0.10838930667E+02 0.12544849013E+02 0.14840681533E+02
 0.17817493522E+02 0.21547599575E+02 0.26063029615E+02 0.31275858268E+02 0.37002569165E+02
 0.43022685028E+02 0.49096294763E+02 0.54984667461E+02 0.60471575235E+02 0.65381339143E+02
 0.69590021572E+02 0.73027603137E+02 0.75671037745E+02 0.77530138700E+02 0.78629874302E+02
 0.69344611180E+02 0.68958624510E+02 0.67801339648E+02 0.65877364807E+02 0.63202299615E+02
 0.59812352699E+02 0.55773846733E+02 0.51189822949E+02 0.46201520813E+02 0.40983675163E+02
 0.35734036565E+02 0.30658894671E+02 0.25957207741E+02 0.21805384850E+02 0.18308046323E+02
 0.15468661888E+02 0.13250037253E+02 0.11591501113E+02 0.10420308001E+02 0.96606635813E+01
 0.92395866789E+01 0.90897294466E+01 0.91498741522E+01 0.93640792145E+01 0.96804300734E+01
 0.10050156508E+02 0.10427586441E+02 0.10771081746E+02 0.11044799749E+02 0.11220891573E+02
 0.11281621195E+02 0.11220891573E+02 0.11044799749E+02 0.10771081746E+02 0.10427586441E+02
 0.10050156508E+02 0.96804300734E+01 0.93640792145E+01 0.91498741522E+01 0.90897294466E+01
 0.92395866789E+01 0.96606635813E+01 0.10420308001E+02 0.11591501113E+02 0.13250037253E+02
 0.15468661888E+02 0.18308046323E+02 0.21805384850E+02 0.25957207741E+02 0.30658894671E+02
 0.35734036565E+02 0.40983675163E+02 0.46201520813E+02 0.51189822949E+02 0.55773846733E+02
 0.59812352699E+02 0.63202299615E+02 0.65877364807E+02 0.67801339648E+02 0.68958624510E+02
 0.58749393761E+02 0.58377584291E+02 0.57268850466E+02 0.55444609274E+02 0.52944552584E+02
 0.49831212036E+02 0.46193876302E+02 0.42150183624E+02 0.37844169268E+02 0.33440358855E+02
 0.29114471697E+02 0.25042103336E+02 0.21385716579E+02 0.18247748431E+02 0.15657107330E+02
 0.13608017507E+02 0.12070067297E+02 0.10996993390E+02 0.10334386476E+02 0.10025309780E+02
 0.10013536218E+02 0.10244677407E+02 0.10665817204E+02 0.11224406942E+02 0.11867192250E+02
 0.12539852366E+02 0.13187837531E+02 0.13758587194E+02 0.14204935680E+02 0.14489140514E+02
 0.14586708016E+02 0.14489140514E+02 0.14204935680E+02 0.13758587194E+02 0.13187837531E+02
 0.12539852366E+02 0.11867192250E+02 0.11224406942E+02 0.10665817204E+02 0.10244677407E+02
 0.10013536218E+02 0.10025309780E+02 0.10334386476E+02 0.10996993390E+02 0.12070067297E+02
 0.13608017507E+02 0.15657107330E+02 0.18247748431E+02 0.21385716579E+02 0.25042103336E+02
 0.29114471697E+02 0.33440358855E+02 0.37844169268E+02 0.42150183624E+02 0.46193876302E+02
 0.49831212036E+02 0.52944552584E+02 0.55444609274E+02 0.57268850466E+02 0.58377584291E+02
 0.48109611209E+02 0.47776699549E+02 0.46787791027E+02 0.45172875554E+02 0.42983374687E+02
 0.40293445199E+02 0.37200362733E+02 0.33823089111E+02 0.30298487003E+02 0.26775199655E+02
 0.23405776826E+02 0.20332204676E+02 0.17643795136E+02 0.15387758900E+02 0.13583655993E+02
 0.12228306091E+02 0.11301796322E+02 0.10773317609E+02 0.10605869670E+02 0.10759337246E+02
 0.11191853659E+02 0.11859653029E+02 0.12715807358E+02 0.13708429375E+02 0.14779115013E+02
 0.15862519051E+02 0.16887873237E+02 0.17782881688E+02 0.18479793071E+02 0.18922716508E+02
 0.19074674098E+02 0.18922716508E+02 0.18479793071E+02 0.17782881688E+02 0.16887873237E+02
 0.15862519051E+02 0.14779115013E+02 0.13708429375E+02 0.12715807358E+02 0.11859653029E+02
 0.11191853659E+02 0.10759337246E+02 0.10605869670E+02 0.10773317609E+02 0.11301796322E+02
 0.12228306091E+02 0.13583655993E+02 0.15387758900E+02 0.17643795136E+02 0.20332204676E+02
 0.23405776826E+02 0.26775199655E+02 0.30298487003E+02 0.33823089111E+02 0.37200362733E+02
 0.40293445199E+02 0.42983374687E+02 0.45172875554E+02 0.46787791027E+02 0.47776699549E+02
 0.38156073590E+02 0.37876214809E+02 0.37047582350E+02 0.35703013570E+02 0.33897113857E+02
 0.31705619216E+02 0.29223767206E+02 0.26563296291E+02 0.23847980073E+02 0.21206937358E+02
 0.18750216937E+02 0.16558031605E+02 0.14688876754E+02 0.13180250694E+02 0.12051017187E+02
 0.11304959920E+02 0.10934645454E+02 0.10924868565E+02 0.11255206982E+02 0.11901414228E+02
 0.12835467530E+02 0.14024151527E+02 0.15426266473E+02 0.16988993654E+02 0.18644535041E+02
 0.20308605392E+02 0.21882384725E+02 0.23258936937E+02 0.24333902282E+02 0.25018803668E+02
 0.25254109294E+02 0.25018803668E+02 0.24333902282E+02 0.23258936937E+02 0.21882384725E+02
 0.20308605392E+02 0.18644535041E+02 0.16988993654E+02 0.15426266473E+02 0.14024151527E+02
 0.12835467530E+02 0.11901414228E+02 0.11255206982E+02 0.10924868565E+02 0.10934645454E+02
 0.11304959920E+02 0.12051017187E+02 0.13180250694E+02 0.14688876754E+02 0.16558031605E+02
 0.18750216937E+02 0.21206937358E+02 0.23847980073E+02 0.26563296291E+02 0.29223767206E+02
 0.31705619216E+02 0.33897113857E+02 0.35703013570E+02 0.37047582350E+02 0.37876214809E+02
 0.29411668372E+02 0.29190595532E+02 0.28538160200E+02 0.27486430339E+02 0.26087854221E+02
 0.24413589205E+02 0.22550899256E+02 0.20597863795E+02 0.18648934310E+02 0.16790135055E+02
 0.15096644100E+02 0.13630285130E+02 0.12438820213E+02 0.11556710371E+02 0.11006835371E+02
 0.10802639837E+02 0.10950281935E+02 0.11450517630E+02 0.12300097070E+02 0.13492277814E+02
 0.15015790573E+02 0.16851544433E+02 0.18966818182E+02 0.21307679575E+02 0.23791615934E+02
 0.26303343120E+02 0.28696925995E+02 0.30806287039E+02 0.32463921235E+02 0.33524799709E+02
 0.33890119375E+02 0.33524799709E+02 0.32463921235E+02 0.30806287039E+02 0.28696925995E+02
 0.26303343120E+02 0.23791615934E+02 0.21307679575E+02 0.18966818182E+02 0.16851544433E+02
 0.15015790573E+02 0.13492277814E+02 0.12300097070E+02 0.11450517630E+02 0.10950281935E+02
 0.10802639837E+02 0.11006835371E+02 0.11556710371E+02 0.12438820213E+02 0.13630285130E+02
 0.15096644100E+02 0.16790135055E+02 0.18648934310E+02 0.20597863795E+02 0.22550899256E+02
 0.24413589205E+02 0.26087854221E+02 0.27486430339E+02 0.28538160200E+02 0.29190595532E+02
 0.22193764281E+02 0.22031168030E+02 0.21553256482E+02 0.20788877224E+02 0.19783542055E+02
 0.18595832446E+02 0.17292883780E+02 0.15945504191E+02 0.14623619220E+02 0.13392682568E+02
 0.12311407571E+02 0.11430792203E+02 0.10794134820E+02 0.10437655031E+02 0.10391404000E+02
 0.10680311468E+02 0.11325397701E+02 0.12345201521E+02 0.13757130496E+02 0.15577751477E+02
 0.17820421509E+02 0.20488687405E+02 0.23564891042E+02 0.26995297203E+02 0.30675319392E+02
 0.34440261752E+02 0.38067402005E+02 0.41293338734E+02 0.43846301906E+02 0.45487877024E+02
 0.46054487525E+02 0.45487877024E+02 0.43846301906E+02 0.41293338734E+02 0.38067402005E+02
 0.34440261752E+02 0.30675319392E+02 0.26995297203E+02 0.23564891042E+02 0.20488687405E+02
 0.17820421509E+02 0.15577751477E+02 0.13757130496E+02 0.12345201521E+02 0.11325397701E+02
 0.10680311468E+02 0.10391404000E+02 0.10437655031E+02 0.10794134820E+02 0.11430792203E+02
 0.12311407571E+02 0.13392682568E+02 0.14623619220E+02 0.15945504191E+02 0.17292883780E+02
 0.18595832446E+02 0.19783542055E+02 0.20788877224E+02 0.21553256482E+02 0.22031168030E+02
 0.16596695705E+02 0.16484719758E+02 0.16156392976E+02 0.15633830862E+02 0.14951702171E+02
 0.14154284641E+02 0.13291991383E+02 0.12417946897E+02 0.11585198010E+02 0.10844938085E+02
 0.10245751414E+02 0.98335607455E+01 0.96518672185E+01 0.97420121916E+01 0.10143462078E+02
 0.10894419415E+02 0.12033220669E+02 0.13600676895E+02 0.15642545611E+02 0.18209997694E+02
 0.21355059212E+02 0.25118333682E+02 0.29508141573E+02 0.34473383526E+02 0.39876366977E+02
 0.45475241120E+02 0.50926457196E+02 0.55813953838E+02 0.59703795970E+02 0.62213816810E+02
 0.63081631697E+02 0.62213816810E+02 0.59703795970E+02 0.55813953838E+02 0.50926457196E+02
 0.45475241120E+02 0.39876366977E+02 0.34473383526E+02 0.29508141573E+02 0.25118333682E+02
 0.21355059212E+02 0.18209997694E+02 0.15642545611E+02 0.13600676895E+02 0.12033220669E+02
 0.10894419415E+02 0.10143462078E+02 0.97420121916E+01 0.96518672185E+01 0.98335607455E+01
 0.10245751414E+02 0.10844938085E+02 0.11585198010E+02 0.12417946897E+02 0.13291991383E+02
 0.14154284641E+02 0.14951702171E+02 0.15633830862E+02 0.16156392976E+02 0.16484719758E+02
 0.12403561306E+02 0.12330324714E+02 0.12116382651E+02 0.11778461997E+02 0.11342641382E+02
 0.10842056345E+02 0.10314426688E+02 0.97999728243E+01 0.93401558657E+01 0.89773392755E+01
 0.87550826099E+01 0.87185821397E+01 0.89148846692E+01 0.93928497989E+01 0.10203296432E+02
 0.11400175560E+02 0.13043600443E+02 0.15204668893E+02 0.17970185100E+02 0.21443378097E+02
 0.25735665174E+02 0.30945237880E+02 0.37121118509E+02 0.44216537060E+02 0.52042485949E+02
 0.60238508084E+02 0.68278529295E+02 0.75528437199E+02 0.81356579624E+02 0.85159443893E+02
 0.86483207289E+02 0.85159443893E+02 0.81356579624E+02 0.75528437199E+02 0.68278529295E+02
 0.60238508084E+02 0.52042485949E+02 0.44216537060E+02 0.37121118509E+02 0.30945237880E+02
 0.25735665174E+02 0.21443378097E+02 0.17970185100E+02 0.15204668893E+02 0.13043600443E+02
 0.11400175560E+02 0.10203296432E+02 0.93928497989E+01 0.89148846692E+01 0.87185821397E+01
 0.87550826099E+01 0.89773392755E+01 0.93401558657E+01 0.97999728243E+01 0.10314426688E+02
 0.10842056345E+02 0.11342641382E+02 0.11778461997E+02 0.12116382651E+02 0.12330324714E+02
 0.93246623821E+01 0.92801231547E+01 0.91508967988E+01 0.89496810275E+01 0.86961889904E+01
 0.84154339872E+01 0.81361444024E+01 0.78898418578E+01 0.77108430664E+01 0.76370110223E+01
 0.77107371662E+01 0.79796116334E+01 0.84965617798E+01 0.93197998398E+01 0.10513582015E+02
 0.12151232719E+02 0.14321494298E+02 0.17137481129E+02 0.20744657921E+02 0.25321555559E+02
 0.31065664724E+02 0.38157931915E+02 0.46703557327E+02 0.56655727684E+02 0.67741709662E+02
 0.79455229285E+02 0.91217713518E+02 0.10216265236E+03 0.11116609115E+03 0.11711545689E+03
 0.11919774762E+03 0.11711545689E+03 0.11116609115E+03 0.10216265236E+03 0.91217713518E+02
 0.79455229285E+02 0.67741709662E+02 0.56655727684E+02 0.46703557327E+02 0.38157931915E+02
 0.31065664724E+02 0.25321555559E+02 0.20744657921E+02 0.17137481129E+02 0.14321494298E+02
 0.12151232719E+02 0.10513582015E+02 0.93197998398E+01 0.84965617798E+01 0.79796116334E+01
 0.77107371662E+01 0.76370110223E+01 0.77108430664E+01 0.78898418578E+01 0.81361444024E+01
 0.84154339872E+01 0.86961889904E+01 0.89496810275E+01 0.91508967988E+01 0.92801231547E+01
 0.70963692615E+01 0.70726017357E+01 0.70047131709E+01 0.69025523083E+01 0.67813769365E+01
 0.66606311440E+01 0.65631170339E+01 0.65150441615E+01 0.65470353671E+01 0.66956721312E+01
 0.70049067024E+01 0.75268349592E+01 0.83218636774E+01 0.94591036819E+01 0.11018696088E+02
 0.13098166497E+02 0.15823866111E+02 0.19365643482E+02 0.23948905778E+02 0.29854705756E+02
 0.37396554075E+02 0.46863530393E+02 0.58426020172E+02 0.72017133750E+02 0.87409771990E+02
 0.10431660622E+03 0.12180848306E+03 0.13832753385E+03 0.15199601292E+03 0.16104150912E+03
 0.16420762337E+03 0.16104150912E+03 0.15199601292E+03 0.13832753385E+03 0.12180848306E+03
 0.10431660622E+03 0.87409771990E+02 0.72017133750E+02 0.58426020172E+02 0.46863530393E+02
 0.37396554075E+02 0.29854705756E+02 0.23948905778E+02 0.19365643482E+02 0.15823866111E+02
 0.13098166497E+02 0.11018696088E+02 0.94591036819E+01 0.83218636774E+01 0.75268349592E+01
 0.70049067024E+01 0.66956721312E+01 0.65470353671E+01 0.65150441615E+01 0.65631170339E+01
 0.66606311440E+01 0.67813769365E+01 0.69025523083E+01 0.70047131709E+01 0.70726017357E+01
 0.55000664123E+01 0.54911190543E+01 0.54670274739E+01 0.54357173245E+01 0.54094829747E+01
 0.54041786050E+01 0.54390250819E+01 0.55374529923E+01 0.57288844868E+01 0.60508382689E+01
 0.65506029989E+01 0.72860878451E+01 0.83262277965E+01 0.97523937170E+01 0.11663337041E+02
 0.14186367323E+02 0.17495535275E+02 0.21833391261E+02 0.27527690057E+02 0.34989641087E+02
 0.44676785632E+02 0.57004086103E+02 0.72199521746E+02 0.90418278562E+02 0.11190537565E+03
 0.13605697006E+03 0.16122040676E+03 0.18494004679E+03 0.20445941899E+03 0.21730587531E+03
 0.22178754856E+03 0.21730587531E+03 0.20445941899E+03 0.18494004679E+03 0.16122040676E+03
 0.13605697006E+03 0.11190537565E+03 0.90418278562E+02 0.72199521746E+02 0.57004086103E+02
 0.44676785632E+02 0.34989641087E+02 0.27527690057E+02 0.21833391261E+02 0.17495535275E+02
 0.14186367323E+02 0.11663337041E+02 0.97523937170E+01 0.83262277965E+01 0.72860878451E+01
 0.65506029989E+01 0.60508382689E+01 0.57288844868E+01 0.55374529923E+01 0.54390250819E+01
 0.54041786050E+01 0.54094829747E+01 0.54357173245E+01 0.54670274739E+01 0.54911190543E+01
 0.43660668589E+01 0.43676138542E+01 0.43745705962E+01 0.43936143458E+01 0.44351614304E+01
 0.45129085067E+01 0.46441695708E+01 0.48513567111E+01 0.51643474289E+01 0.56229734658E+01
 0.62788574554E+01 0.71963824544E+01 0.84535964095E+01 0.10145231691E+02 0.12391259191E+02
 0.15354176201E+02 0.19265237686E+02 0.24454290054E+02 0.31371250386E+02 0.40580395982E+02
 0.52702283302E+02 0.68278590558E+02 0.87770900751E+02 0.11205548129E+03 0.14128290099E+03
 0.17421773914E+03 0.20827497932E+03 0.23999550144E+03 0.26577436235E+03 0.28256959316E+03
 0.28839595527E+03 0.28256959316E+03 0.26577436235E+03 0.23999550144E+03 0.20827497932E+03
 0.17421773914E+03 0.14128290099E+03 0.11205548129E+03 0.87770900751E+02 0.68278590558E+02
 0.52702283302E+02 0.40580395982E+02 0.31371250386E+02 0.24454290054E+02 0.19265237686E+02
 0.15354176201E+02 0.12391259191E+02 0.10145231691E+02 0.84535964095E+01 0.71963824544E+01
 0.62788574554E+01 0.56229734658E+01 0.51643474289E+01 0.48513567111E+01 0.46441695708E+01
 0.45129085067E+01 0.44351614304E+01 0.43936143458E+01 0.43745705962E+01 0.43676138542E+01
 0.35684898174E+01 0.35774338218E+01 0.36063046141E+01 0.36609959657E+01 0.37507916341E+01
 0.38882046780E+01 0.40897538446E+01 0.43779485245E+01 0.47840884286E+01 0.53510108848E+01
 0.61350418162E+01 0.72071553718E+01 0.86546286850E+01 0.10586171004E+02 0.13144833908E+02
 0.16532262759E+02 0.21043727728E+02 0.27106465477E+02 0.35305450272E+02 0.46370556925E+02
 0.61088709270E+02 0.80160512716E+02 0.10480031455E+03 0.13618515326E+03 0.17404619741E+03
 0.21629927724E+03 0.25929952373E+03 0.29862020164E+03 0.33001805033E+03 0.35019151532E+03
 0.35713603660E+03 0.35019151532E+03 0.33001805033E+03 0.29862020164E+03 0.25929952373E+03
 0.21629927724E+03 0.17404619741E+03 0.13618515326E+03 0.10480031455E+03 0.80160512716E+02
 0.61088709270E+02 0.46370556925E+02 0.35305450272E+02 0.27106465477E+02 0.21043727728E+02
 0.16532262759E+02 0.13144833908E+02 0.10586171004E+02 0.86546286850E+01 0.72071553718E+01
 0.61350418162E+01 0.53510108848E+01 0.47840884286E+01 0.43779485245E+01 0.40897538446E+01
 0.38882046780E+01 0.37507916341E+01 0.36609959657E+01 0.36063046141E+01 0.35774338218E+01
 0.30164705144E+01 0.30305866150E+01 0.30748012951E+01 0.31545317596E+01 0.32784156456E+01
 0.34584012108E+01 0.37108811327E+01 0.40590673103E+01 0.45361026887E+01 0.51879807538E+01
 0.60755899717E+01 0.72761294579E+01 0.88856903747E+01 0.11026785056E+02 0.13865944924E+02
 0.17645166155E+02 0.22725767271E+02 0.29634971098E+02 0.39094844021E+02 0.51998661731E+02
 0.69284688931E+02 0.92057956027E+02 0.12226683450E+03 0.16099249020E+03 0.20735214058E+03
 0.25826889943E+03 0.30902536003E+03 0.35439907493E+03 0.38985014711E+03 0.41223220402E+03
 0.41986126175E+03 0.41223220402E+03 0.38985014711E+03 0.35439907493E+03 0.30902536003E+03
 0.25826889943E+03 0.20735214058E+03 0.16099249020E+03 0.12226683450E+03 0.92057956027E+02
 0.69284688931E+02 0.51998661731E+02 0.39094844021E+02 0.29634971098E+02 0.22725767271E+02
 0.17645166155E+02 0.13865944924E+02 0.11026785056E+02 0.88856903747E+01 0.72761294579E+01
 0.60755899717E+01 0.51879807538E+01 0.45361026887E+01 0.40590673103E+01 0.37108811327E+01
 0.34584012108E+01 0.32784156456E+01 0.31545317596E+01 0.30748012951E+01 0.30305866150E+01
 0.26454038045E+01 0.26630593412E+01 0.27177876624E+01 0.28147257243E+01 0.29621663802E+01