    5    5  300    1
  0.1314464E+02  0.4035583E-09  0.4035583E-09  0.4035583E-09  0.5000000E-15
  1.000000000000000E-004
  CAR 
 unknown system                          
     27     18     24
 
  0.3742002E-15  0.3742002E-15  0.3742002E-15  0.8000000E-02
    1      -23.448202   1.000000
    2      -14.770546   1.000000
    3      -14.299213   1.000000
    4       -8.585948   1.000000
    5       -8.585948   1.000000
    6       -8.504067   1.000000
    7       -1.716790   1.000000
    8       -0.188861   1.000000
    9       -0.188861   1.000000
   10        0.571569   1.000000
   11        0.664194   1.000000
   12        1.352564   1.000000
   13        1.352564   1.000000
   14        4.253104   1.024312
   15        4.341220   0.897181
   16        4.341220   0.897181
   17        6.412984  -0.000000
   18        6.536064  -0.000000
   19        6.656295  -0.000000
   20        7.372544  -0.000000
   21       10.050491   0.000000
   22       10.062964   0.000000
   23       10.062964   0.000000
   24       11.477582   0.000000
 
  0.2000000E+00  0.3742002E-15  0.3742002E-15  0.1600000E-01
    1      -23.414889   1.000000
    2      -14.914162   1.000000
    3      -14.285159   1.000000
    4       -8.531247   1.000000
    5       -8.531247   1.000000
    6       -8.386776   1.000000
    7       -1.716833   1.000000
    8       -0.411709   1.000000
    9       -0.411709   1.000000
   10        0.323423   1.000000
   11        0.724093   1.000000
   12        1.253769   1.000000
   13        1.253769   1.000000
   14        4.325361   0.933453
   15        4.332759   0.917322
   16        4.332759   0.917322
   17        6.415058  -0.000000
   18        6.522330  -0.000000
   19        7.240807  -0.000000
   20        8.001855  -0.000000
   21        9.913318   0.000000
   22       10.402918   0.000000
   23       10.402918   0.000000
   24       10.878045   0.000000
 
  0.4000000E+00  0.3742002E-15  0.3742002E-15  0.1600000E-01
    1      -23.359771   1.000000
    2      -15.140037   1.000000
    3      -14.263215   1.000000
    4       -8.438790   1.000000
    5       -8.438790   1.000000
    6       -8.192087   1.000000
    7       -1.908006   1.000000
    8       -0.790852   1.000000
    9       -0.790852   1.000000
   10       -0.134895   1.000000
   11        1.178501   1.000000
   12        1.178501   1.000000
   13        1.563004   1.000000
   14        4.253999   1.023819
   15        4.253999   1.023819
   16        4.449713   0.507845
   17        5.165147  -0.000003
   18        6.418343  -0.000000
   19        8.391895  -0.000000
   20        9.681587  -0.000000
   21        9.931844   0.000000
   22       10.710550   0.000000
   23       11.005395   0.000000
   24       11.005395   0.000000
 
  0.3742002E-15  0.2000000E+00  0.3742002E-15  0.3200000E-01
    1      -23.422467   1.000000
    2      -14.734256   1.000000
    3      -14.291854   1.000000
    4       -8.652497   1.000000
    5       -8.562916   1.000000
    6       -8.459445   1.000000
    7       -1.436201   1.000000
    8       -0.736970   1.000000
    9       -0.163288   1.000000
   10        0.297788   1.000000
   11        0.400906   1.000000
   12        0.731313   1.000000
   13        0.935186   1.000000
   14        4.408984   0.675736
   15        4.837141  -0.010022
   16        4.895941  -0.003661
   17        6.456005  -0.000000
   18        6.791220  -0.000000
   19        7.268166  -0.000000
   20        8.059532  -0.000000
   21        8.820280  -0.000000
   22        9.924592   0.000000
   23       10.119196   0.000000
   24       10.483358   0.000000
 
  0.2000000E+00  0.2000000E+00  0.3742002E-15  0.6400000E-01
    1      -23.391713   1.000000
    2      -14.829091   1.000000
    3      -14.286944   1.000000
    4       -8.751833   1.000000
    5       -8.506326   1.000000
    6       -8.338410   1.000000
    7       -1.395865   1.000000
    8       -0.896581   1.000000
    9       -0.369290   1.000000
   10        0.137392   1.000000
   11        0.475684   1.000000
   12        0.846166   1.000000
   13        0.925149   1.000000
   14        4.265437   1.016353
   15        4.809046  -0.014921
   16        4.905392  -0.003050
   17        6.501566  -0.000000
   18        6.925743  -0.000000
   19        7.536673  -0.000000
   20        8.342568  -0.000000
   21        8.971783  -0.000000
   22        9.645142  -0.000000
   23       10.391626   0.000000
   24       11.216690   0.000000
 
  0.4000000E+00  0.2000000E+00  0.3742002E-15  0.6400000E-01
    1      -23.340857   1.000000
    2      -14.995585   1.000000
    3      -14.263676   1.000000
    4       -8.757082   1.000000
    5       -8.410538   1.000000
    6       -8.306811   1.000000
    7       -1.534600   1.000000
    8       -1.003510   1.000000
    9       -0.747560   1.000000
   10       -0.078752   1.000000
   11        0.782084   1.000000
   12        0.806241   1.000000
   13        1.389864   1.000000
   14        4.022481   1.004860
   15        4.717008  -0.034056
   16        4.994055  -0.000426
   17        5.204317  -0.000001
   18        6.950311  -0.000000
   19        8.376976  -0.000000
   20        9.259564  -0.000000
   21        9.789717  -0.000000
   22        9.861230  -0.000000
   23       11.053162   0.000000
   24       12.163090   0.000000
 
  0.3742002E-15  0.4000000E+00  0.3742002E-15  0.3200000E-01
    1      -23.380198   1.000000
    2      -14.768313   1.000000
    3      -14.177536   1.000000
    4       -8.742257   1.000000
    5       -8.525092   1.000000
    6       -8.384703   1.000000
    7       -1.744700   1.000000
    8       -0.804540   1.000000
    9       -0.159282   1.000000
   10       -0.037822   1.000000
   11        0.046226   1.000000
   12        0.117893   1.000000
   13        0.335312   1.000000
   14        4.525358   0.210080
   15        5.716618  -0.000000
   16        5.765940  -0.000000
   17        5.865982  -0.000000
   18        6.976881  -0.000000
   19        7.675879  -0.000000
   20        8.585023  -0.000000
   21        9.129623  -0.000000
   22        9.693151  -0.000000
   23        9.977886   0.000000
   24       11.574493   0.000000
 
  0.2000000E+00  0.4000000E+00  0.3742002E-15  0.6400000E-01
    1      -23.353640   1.000000
    2      -14.732376   1.000000
    3      -14.242405   1.000000
    4       -8.919123   1.000000
    5       -8.465334   1.000000
    6       -8.429541   1.000000
    7       -1.736782   1.000000
    8       -0.745323   1.000000
    9       -0.218998   1.000000
   10       -0.200500   1.000000
   11        0.169858   1.000000
   12        0.251852   1.000000
   13        0.530028   1.000000
   14        4.153397   1.028058
   15        5.641835  -0.000000
   16        5.744975  -0.000000
   17        6.463863  -0.000000
   18        6.763835  -0.000000
   19        7.920405  -0.000000
   20        8.155303  -0.000000
   21        9.421293  -0.000000
   22        9.837233  -0.000000
   23       10.243675   0.000000
   24       11.969953   0.000000
 
  0.4000000E+00  0.4000000E+00  0.3742002E-15  0.6400000E-01
    1      -23.309922   1.000000
    2      -14.697596   1.000000
    3      -14.322375   1.000000
    4       -9.161122   1.000000
    5       -8.527698   1.000000
    6       -8.363998   1.000000
    7       -1.732455   1.000000
    8       -1.031926   1.000000
    9       -0.643330   1.000000
   10       -0.010963   1.000000
   11        0.299166   1.000000
   12        0.808115   1.000000
   13        1.256282   1.000000
   14        3.664243   1.000000
   15        5.057241  -0.000080
   16        5.565466  -0.000000
   17        5.773407  -0.000000
   18        7.314842  -0.000000
   19        7.859585  -0.000000
   20        8.876344  -0.000000
   21        9.523318  -0.000000
   22       10.984238   0.000000
   23       11.113261   0.000000
   24       12.892596   0.000000
 
  0.3742002E-15  0.2000000E+00  0.2000000E+00  0.3200000E-01
    1      -23.397921   1.000000
    2      -14.650464   1.000000
    3      -14.330801   1.000000
    4       -8.657298   1.000000
    5       -8.562020   1.000000
    6       -8.410831   1.000000
    7       -1.469817   1.000000
    8       -0.876415   1.000000
    9       -0.592937   1.000000
   10       -0.035967   1.000000
   11        0.060735   1.000000
   12        0.127905   1.000000
   13        1.182986   1.000000
   14        4.831726  -0.010869
   15        5.031196  -0.000163
   16        5.149824  -0.000005
   17        6.747611  -0.000000
   18        7.346975  -0.000000
   19        7.722139  -0.000000
   20        8.206212  -0.000000
   21        8.628818  -0.000000
   22        9.864391  -0.000000
   23       10.467528   0.000000
   24       11.415571   0.000000
 
  0.2000000E+00  0.2000000E+00  0.2000000E+00  0.6400000E-01
    1      -23.369319   1.000000
    2      -14.726307   1.000000
    3      -14.300779   1.000000
    4       -8.817541   1.000000
    5       -8.603404   1.000000
    6       -8.296520   1.000000
    7       -1.301026   1.000000
    8       -1.091182   1.000000
    9       -0.702446   1.000000
   10        0.007091   1.000000
   11        0.039244   1.000000
   12        0.438792   1.000000
   13        1.135559   1.000000
   14        4.579268   0.063455
   15        4.935206  -0.001656
   16        5.254076  -0.000000
   17        6.825841  -0.000000
   18        7.511819  -0.000000
   19        7.831082  -0.000000
   20        7.908049  -0.000000
   21        8.956539  -0.000000
   22        9.847370  -0.000000
   23       10.578204   0.000000
   24       11.969664   0.000000
 
  0.4000000E+00  0.2000000E+00  0.2000000E+00  0.6400000E-01
    1      -23.322146   1.000000
    2      -14.854094   1.000000
    3      -14.250810   1.000000
    4       -8.786855   1.000000
    5       -8.674187   1.000000
    6       -8.418359   1.000000
    7       -1.237709   1.000000
    8       -1.025529   1.000000
    9       -0.810766   1.000000
   10       -0.030942   1.000000
   11        0.109631   1.000000
   12        0.905953   1.000000
   13        0.966886   1.000000
   14        4.425263   0.610243
   15        4.797931  -0.017183
   16        5.239833  -0.000000
   17        5.387947  -0.000000
   18        7.607161  -0.000000
   19        8.725961  -0.000000
   20        8.759123  -0.000000
   21        9.668387  -0.000000
   22       10.312990   0.000000
   23       10.353480   0.000000
   24       13.173665   0.000000
 
  0.3742002E-15  0.4000000E+00  0.2000000E+00  0.6400000E-01
    1      -23.357530   1.000000
    2      -14.638161   1.000000
    3      -14.258558   1.000000
    4       -8.678123   1.000000
    5       -8.533431   1.000000
    6       -8.329109   1.000000
    7       -2.008925   1.000000
    8       -1.139961   1.000000
    9       -0.972223   1.000000
   10       -0.403748   1.000000
   11       -0.356995   1.000000
   12       -0.176834   1.000000
   13        1.122554   1.000000
   14        4.992426  -0.000443
   15        5.779835  -0.000000
   16        5.822430  -0.000000
   17        6.710345  -0.000000
   18        7.860277  -0.000000
   19        8.078124  -0.000000
   20        9.012681  -0.000000
   21        9.326050  -0.000000
   22        9.950605   0.000000
   23       10.390385   0.000000
   24       11.877738   0.000000
 
  0.2000000E+00  0.4000000E+00  0.2000000E+00  0.1280000E+00
    1      -23.332569   1.000000
    2      -14.602513   1.000000
    3      -14.274010   1.000000
    4       -8.882813   1.000000
    5       -8.679289   1.000000
    6       -8.337282   1.000000
    7       -1.883237   1.000000
    8       -1.104770   1.000000
    9       -0.904037   1.000000
   10       -0.323637   1.000000
   11       -0.161985   1.000000
   12        0.067252   1.000000
   13        1.104282   1.000000
   14        4.699298  -0.035429
   15        5.666183  -0.000000
   16        5.887939  -0.000000
   17        6.985129  -0.000000
   18        7.320027  -0.000000
   19        8.063105  -0.000000
   20        8.875125  -0.000000
   21        9.403235  -0.000000
   22        9.969607   0.000000
   23       10.692499   0.000000
   24       12.288792   0.000000
 
  0.4000000E+00  0.4000000E+00  0.2000000E+00  0.1280000E+00
    1      -23.291531   1.000000
    2      -14.565594   1.000000
    3      -14.280579   1.000000
    4       -9.118350   1.000000
    5       -8.783347   1.000000
    6       -8.562405   1.000000
    7       -1.747674   1.000000
    8       -0.860304   1.000000
    9       -0.668843   1.000000
   10       -0.270841   1.000000
   11       -0.086681   1.000000
   12        0.610067   1.000000
   13        1.097375   1.000000
   14        4.437533   0.559222
   15        5.201876  -0.000001
   16        5.592560  -0.000000
   17        5.976254  -0.000000
   18        8.058666  -0.000000
   19        8.415750  -0.000000
   20        9.197663  -0.000000
   21        9.478530  -0.000000
   22       10.046961   0.000000
   23       11.096772   0.000000
   24       13.252350   0.000000
 
  0.3742002E-15  0.4000000E+00  0.4000000E+00  0.3200000E-01
    1      -23.320305   1.000000
    2      -14.427179   1.000000
    3      -14.377481   1.000000
    4       -8.570346   1.000000
    5       -8.533838   1.000000
    6       -8.235050   1.000000
    7       -2.664893   1.000000
    8       -1.783906   1.000000
    9       -1.423122   1.000000
   10       -0.869566   1.000000
   11       -0.638397   1.000000
   12       -0.610339   1.000000
   13        1.573795   1.000000
   14        5.757096  -0.000000
   15        5.827241  -0.000000
   16        6.171689  -0.000000
   17        8.385800  -0.000000
   18        8.648865  -0.000000
   19        9.319836  -0.000000
   20        9.803428  -0.000000
   21        9.954666   0.000000
   22       10.326048   0.000000
   23       11.192677   0.000000
   24       11.921763   0.000000
 
  0.2000000E+00  0.4000000E+00  0.4000000E+00  0.6400000E-01
    1      -23.298007   1.000000
    2      -14.387773   1.000000
    3      -14.321817   1.000000
    4       -8.833777   1.000000
    5       -8.722944   1.000000
    6       -8.475079   1.000000
    7       -2.420192   1.000000
    8       -1.424422   1.000000
    9       -1.362868   1.000000
   10       -0.770884   1.000000
   11       -0.374682   1.000000
   12       -0.276564   1.000000
   13        1.595706   1.000000
   14        5.593469  -0.000000
   15        5.751228  -0.000000
   16        6.251602  -0.000000
   17        7.007868  -0.000000
   18        8.864558  -0.000000
   19        9.105350  -0.000000
   20        9.643688  -0.000000
   21        9.665961  -0.000000
   22       10.663655   0.000000
   23       10.927719   0.000000
   24       12.427420   0.000000
 
  0.4000000E+00  0.4000000E+00  0.4000000E+00  0.6400000E-01
    1      -23.261433   1.000000
    2      -14.323565   1.000000
    3      -14.226200   1.000000
    4       -9.111683   1.000000
    5       -9.020125   1.000000
    6       -8.936978   1.000000
    7       -2.004889   1.000000
    8       -1.419501   1.000000
    9       -0.635174   1.000000
   10       -0.499740   1.000000
   11        0.078788   1.000000
   12        0.104078   1.000000
   13        1.582278   1.000000
   14        5.111611  -0.000016
   15        5.637854  -0.000000
   16        5.647088  -0.000000
   17        6.370564  -0.000000
   18        8.586193  -0.000000
   19        8.653113  -0.000000
   20        9.571654  -0.000000
   21        9.975081   0.000000
   22       10.650471   0.000000
   23       11.020769   0.000000
   24       13.119618   0.000000
