       N       E                     dE             d eps       ncg     rms          rms(c)
DAV:   1    -0.337011691874E+02   -0.33701E+02   -0.10786E+00   864   0.638E+00    0.675E-01
DAV:   2    -0.336945127377E+02    0.66564E-02   -0.25994E-02  1016   0.121E+00    0.518E-01
DAV:   3    -0.336918808193E+02    0.26319E-02   -0.63569E-03  1144   0.568E-01    0.248E-01
DAV:   4    -0.336906544742E+02    0.12263E-02   -0.31855E-03  1048   0.343E-01    0.406E-02
DAV:   5    -0.336906686385E+02   -0.14164E-04   -0.14853E-04   976   0.800E-02    0.324E-02
DAV:   6    -0.336906749384E+02   -0.62999E-05   -0.10436E-05  1056   0.188E-02    0.147E-02
DAV:   7    -0.336906763211E+02   -0.13827E-05   -0.37493E-06  1024   0.135E-02    0.533E-03
DAV:   8    -0.336906761337E+02    0.18738E-06   -0.52688E-07  1008   0.434E-03    0.178E-03
DAV:   9    -0.336906760859E+02    0.47837E-07   -0.10811E-08   464   0.701E-04
   1 F= -.33690676E+02 E0= -.33689111E+02  d E =-.336907E+02
       N       E                     dE             d eps       ncg     rms          rms(c)
DAV:   1    -0.337111493694E+02   -0.20473E-01   -0.72498E-01   888   0.533E+00    0.102E+00
DAV:   2    -0.337007569922E+02    0.10392E-01   -0.96710E-02  1192   0.210E+00    0.809E-01
DAV:   3    -0.336957683967E+02    0.49886E-02   -0.20716E-02  1104   0.953E-01    0.354E-01
DAV:   4    -0.336944450131E+02    0.13234E-02   -0.35985E-03  1112   0.332E-01    0.684E-02
DAV:   5    -0.336944737178E+02   -0.28705E-04   -0.28933E-04  1176   0.906E-02    0.294E-02
DAV:   6    -0.336944733973E+02    0.32048E-06   -0.27316E-05   976   0.315E-02    0.145E-02
DAV:   7    -0.336944714053E+02    0.19920E-05   -0.39313E-06  1176   0.137E-02    0.277E-03
DAV:   8    -0.336944717804E+02   -0.37511E-06   -0.39694E-07   960   0.344E-03    0.849E-04
DAV:   9    -0.336944717267E+02    0.53651E-07   -0.29907E-08   592   0.115E-03
   2 F= -.33694472E+02 E0= -.33693056E+02  d E =-.379564E-02
       N       E                     dE             d eps       ncg     rms          rms(c)
DAV:   1    -0.337020200163E+02   -0.75482E-02   -0.14630E-01   992   0.248E+00    0.632E-01
DAV:   2    -0.336974641909E+02    0.45558E-02   -0.38577E-02  1176   0.119E+00    0.346E-01
DAV:   3    -0.336958403110E+02    0.16239E-02   -0.82539E-03  1104   0.596E-01    0.106E-01
DAV:   4    -0.336955787499E+02    0.26156E-03   -0.80648E-04  1200   0.168E-01    0.469E-02
DAV:   5    -0.336955765708E+02    0.21791E-05   -0.13137E-04  1280   0.594E-02    0.145E-02
DAV:   6    -0.336955890725E+02   -0.12502E-04   -0.85264E-06  1168   0.181E-02    0.781E-03
DAV:   7    -0.336955906278E+02   -0.15553E-05   -0.27419E-06  1152   0.928E-03    0.167E-03
DAV:   8    -0.336955909632E+02   -0.33548E-06   -0.25484E-07  1016   0.308E-03    0.975E-04
DAV:   9    -0.336955907921E+02    0.17110E-06   -0.11877E-08   496   0.739E-04    0.580E-04
DAV:  10    -0.336955906457E+02    0.14642E-06   -0.55159E-09   464   0.497E-04    0.155E-04
DAV:  11    -0.336955906381E+02    0.76041E-08   -0.20304E-09   448   0.330E-04
   3 F= -.33695591E+02 E0= -.33694143E+02  d E =-.111891E-02
       N       E                     dE             d eps       ncg     rms          rms(c)
DAV:   1    -0.336967869613E+02   -0.11963E-02   -0.75581E-02   864   0.169E+00    0.208E-01
DAV:   2    -0.336961219091E+02    0.66505E-03   -0.13667E-03  1016   0.258E-01    0.125E-01
DAV:   3    -0.336959038525E+02    0.21806E-03   -0.27273E-04  1048   0.100E-01    0.410E-02
DAV:   4    -0.336958850491E+02    0.18803E-04   -0.69793E-05  1176   0.472E-02    0.148E-02
DAV:   5    -0.336958831236E+02    0.19255E-05   -0.12855E-05  1112   0.253E-02    0.663E-03
DAV:   6    -0.336958838613E+02   -0.73769E-06   -0.17106E-06   992   0.794E-03    0.349E-03
DAV:   7    -0.336958840183E+02   -0.15704E-06   -0.47143E-07   984   0.436E-03    0.584E-04
DAV:   8    -0.336958839588E+02    0.59529E-07   -0.18895E-08   448   0.936E-04
   4 F= -.33695884E+02 E0= -.33694475E+02  d E =-.293321E-03
       N       E                     dE             d eps       ncg     rms          rms(c)
DAV:   1    -0.336958846573E+02   -0.63901E-06   -0.13662E-05  1032   0.238E-02    0.640E-03
DAV:   2    -0.336958842167E+02    0.44068E-06   -0.41120E-06  1200   0.123E-02    0.384E-03
DAV:   3    -0.336958840559E+02    0.16080E-06   -0.88355E-07  1008   0.617E-03    0.119E-03
DAV:   4    -0.336958839980E+02    0.57843E-07   -0.75955E-08   584   0.168E-03
   5 F= -.33695884E+02 E0= -.33694476E+02  d E =-.392236E-07
       N       E                     dE             d eps       ncg     rms          rms(c)
DAV:   1    -0.336958841098E+02   -0.53985E-07   -0.36903E-06   928   0.126E-02    0.348E-03
DAV:   2    -0.336958839461E+02    0.16370E-06   -0.12009E-06  1152   0.656E-03    0.207E-03
DAV:   3    -0.336958838916E+02    0.54495E-07   -0.24847E-07   648   0.333E-03
   6 F= -.33695884E+02 E0= -.33694476E+02  d E =0.106366E-06
       N       E                     dE             d eps       ncg     rms          rms(c)
DAV:   1    -0.336958838866E+02    0.59577E-07   -0.54347E-07   968   0.452E-03    0.891E-04
DAV:   2    -0.336958838541E+02    0.32433E-07   -0.89801E-08   432   0.207E-03
   7 F= -.33695884E+02 E0= -.33694476E+02  d E =0.375160E-07
       N       E                     dE             d eps       ncg     rms          rms(c)
DAV:   1    -0.336958838466E+02    0.39961E-07   -0.87194E-07   872   0.621E-03    0.141E-03
DAV:   2    -0.336958838096E+02    0.36986E-07   -0.17721E-07   496   0.260E-03
   8 F= -.33695884E+02 E0= -.33694476E+02  d E =0.445136E-07
       N       E                     dE             d eps       ncg     rms          rms(c)
DAV:   1    -0.336958838120E+02    0.34582E-07   -0.29167E-07   864   0.366E-03    0.349E-04
DAV:   2    -0.336958838009E+02    0.11070E-07   -0.10880E-08   432   0.661E-04
   9 F= -.33695884E+02 E0= -.33694476E+02  d E =0.866703E-08
       N       E                     dE             d eps       ncg     rms          rms(c)
DAV:   1    -0.336958839243E+02   -0.11227E-06   -0.75698E-06   888   0.171E-02    0.275E-03
DAV:   2    -0.336958838682E+02    0.56057E-07   -0.73052E-07  1000   0.605E-03
  10 F= -.33695884E+02 E0= -.33694475E+02  d E =-.672808E-07
       N       E                     dE             d eps       ncg     rms          rms(c)
DAV:   1    -0.336958838538E+02    0.70466E-07   -0.21105E-06   920   0.906E-03    0.222E-03
DAV:   2    -0.336958838253E+02    0.28482E-07   -0.22569E-07   608   0.371E-03
  11 F= -.33695884E+02 E0= -.33694475E+02  d E =0.428902E-07
       N       E                     dE             d eps       ncg     rms          rms(c)
DAV:   1    -0.336958838174E+02    0.36403E-07   -0.87508E-08   440   0.231E-03    0.751E-04
DAV:   2    -0.336958838306E+02   -0.13171E-07   -0.15965E-08   432   0.926E-04
  12 F= -.33695884E+02 E0= -.33694475E+02  d E =-.524938E-08
       N       E                     dE             d eps       ncg     rms          rms(c)
DAV:   1    -0.336958840434E+02   -0.22602E-06   -0.10418E-05   888   0.201E-02    0.307E-03
DAV:   2    -0.336958839336E+02    0.10985E-06   -0.81154E-07  1000   0.636E-03    0.257E-03
DAV:   3    -0.336958838943E+02    0.39268E-07   -0.15552E-07   600   0.273E-03
  13 F= -.33695884E+02 E0= -.33694476E+02  d E =-.637344E-07
       N       E                     dE             d eps       ncg     rms          rms(c)
DAV:   1    -0.336958854399E+02   -0.15063E-05   -0.15607E-04   888   0.776E-02    0.121E-02
DAV:   2    -0.336958840613E+02    0.13785E-05   -0.13158E-05  1096   0.258E-02    0.104E-02
DAV:   3    -0.336958833019E+02    0.75944E-06   -0.26030E-06  1112   0.109E-02    0.496E-03
DAV:   4    -0.336958831390E+02    0.16287E-06   -0.66174E-07  1032   0.469E-03    0.563E-04
DAV:   5    -0.336958831957E+02   -0.56642E-07   -0.37959E-08   496   0.114E-03
  14 F= -.33695883E+02 E0= -.33694473E+02  d E =0.698643E-06
       N       E                     dE             d eps       ncg     rms          rms(c)
DAV:   1    -0.336958832836E+02   -0.14455E-06   -0.16477E-08   448   0.850E-04    0.125E-04
DAV:   2    -0.336958832930E+02   -0.94119E-08   -0.20055E-09   432   0.334E-04
  15 F= -.33695883E+02 E0= -.33694473E+02  d E =-.973159E-07
       N       E                     dE             d eps       ncg     rms          rms(c)
DAV:   1    -0.336958846825E+02   -0.13989E-05   -0.71202E-05   864   0.519E-02    0.621E-03
DAV:   2    -0.336958840636E+02    0.61884E-06   -0.12547E-06  1016   0.818E-03    0.409E-03
DAV:   3    -0.336958838523E+02    0.21136E-06   -0.29881E-07   920   0.365E-03    0.140E-03
DAV:   4    -0.336958838114E+02    0.40853E-07   -0.12399E-07   480   0.228E-03
  16 F= -.33695884E+02 E0= -.33694475E+02  d E =-.518427E-06
       N       E                     dE             d eps       ncg     rms          rms(c)
DAV:   1    -0.336958842827E+02   -0.43045E-06   -0.32677E-05   864   0.351E-02    0.413E-03
DAV:   2    -0.336958840154E+02    0.26732E-06   -0.70844E-07  1032   0.647E-03    0.314E-03
DAV:   3    -0.336958839293E+02    0.86145E-07   -0.16822E-07   776   0.299E-03
  17 F= -.33695884E+02 E0= -.33694475E+02  d E =-.117837E-06
       N       E                     dE             d eps       ncg     rms          rms(c)
DAV:   1    -0.336958876093E+02   -0.35939E-05   -0.43493E-04   888   0.129E-01    0.186E-02
DAV:   2    -0.336958839065E+02    0.37028E-05   -0.26172E-05  1040   0.370E-02    0.160E-02
DAV:   3    -0.336958822715E+02    0.16350E-05   -0.54046E-06  1088   0.158E-02    0.791E-03
DAV:   4    -0.336958814021E+02    0.86944E-06   -0.16957E-06  1024   0.770E-03    0.974E-04
DAV:   5    -0.336958813481E+02    0.53990E-07   -0.94357E-08   616   0.187E-03
  18 F= -.33695881E+02 E0= -.33694477E+02  d E =0.258114E-05
       N       E                     dE             d eps       ncg     rms          rms(c)
DAV:   1    -0.336959008150E+02   -0.19413E-04   -0.18243E-03   864   0.263E-01    0.315E-02
DAV:   2    -0.336958886763E+02    0.12139E-04   -0.48841E-05  1016   0.530E-02    0.255E-02
DAV:   3    -0.336958841844E+02    0.44919E-05   -0.11762E-05  1144   0.239E-02    0.123E-02
DAV:   4    -0.336958821421E+02    0.20422E-05   -0.54058E-06  1056   0.142E-02    0.170E-03
DAV:   5    -0.336958822114E+02   -0.69286E-07   -0.28416E-07   928   0.371E-03
  19 F= -.33695882E+02 E0= -.33694470E+02  d E =-.863296E-06
       N       E                     dE             d eps       ncg     rms          rms(c)
DAV:   1    -0.336958885718E+02   -0.64296E-05   -0.41310E-04   864   0.125E-01    0.151E-02
DAV:   2    -0.336958855732E+02    0.29985E-05   -0.10678E-05  1016   0.248E-02    0.121E-02
DAV:   3    -0.336958845362E+02    0.10370E-05   -0.26337E-06  1152   0.113E-02    0.578E-03
DAV:   4    -0.336958839347E+02    0.60144E-06   -0.12205E-06  1016   0.679E-03    0.849E-04
DAV:   5    -0.336958839152E+02    0.19558E-07   -0.65776E-08   456   0.184E-03
  20 F= -.33695884E+02 E0= -.33694476E+02  d E =-.170376E-05
       N       E                     dE             d eps       ncg     rms          rms(c)
DAV:   1    -0.336958839211E+02    0.13655E-07   -0.56839E-07   904   0.492E-03    0.129E-03
DAV:   2    -0.336958839012E+02    0.19892E-07   -0.13406E-07   440   0.243E-03
  21 F= -.33695884E+02 E0= -.33694476E+02  d E =0.139894E-07
       N       E                     dE             d eps       ncg     rms          rms(c)
DAV:   1    -0.336958839055E+02    0.15554E-07   -0.51543E-07   880   0.464E-03    0.109E-03
DAV:   2    -0.336958838916E+02    0.13920E-07   -0.69605E-08   448   0.177E-03
  22 F= -.33695884E+02 E0= -.33694476E+02  d E =0.958153E-08
       N       E                     dE             d eps       ncg     rms          rms(c)
DAV:   1    -0.336958838889E+02    0.16603E-07   -0.59798E-08   432   0.179E-03    0.170E-04
DAV:   2    -0.336958838984E+02   -0.94415E-08   -0.80898E-09   432   0.735E-04
  23 F= -.33695884E+02 E0= -.33694476E+02  d E =-.675777E-08
       N       E                     dE             d eps       ncg     rms          rms(c)
DAV:   1    -0.336958839921E+02   -0.10317E-06   -0.25617E-06   944   0.102E-02    0.212E-03
DAV:   2    -0.336958839357E+02    0.56431E-07   -0.35378E-07   792   0.364E-03
  24 F= -.33695884E+02 E0= -.33694476E+02  d E =-.373022E-07
       N       E                     dE             d eps       ncg     rms          rms(c)
DAV:   1    -0.336958839319E+02    0.60207E-07   -0.66717E-07   864   0.542E-03    0.662E-04
DAV:   2    -0.336958839221E+02    0.97946E-08   -0.38845E-08   448   0.117E-03
  25 F= -.33695884E+02 E0= -.33694476E+02  d E =0.135713E-07
       N       E                     dE             d eps       ncg     rms          rms(c)
DAV:   1    -0.336958839425E+02   -0.10625E-07   -0.59040E-07   864   0.510E-03    0.130E-03
DAV:   2    -0.336958839169E+02    0.25622E-07   -0.13336E-07   448   0.231E-03
  26 F= -.33695884E+02 E0= -.33694476E+02  d E =0.520208E-08
