 vasp.5.4.1 05Feb16 (build Nov 07 2016 16:53:41) complex                        
  
 executed on           IFC91_ompi date 2024.10.15  16:03:20
 running on    8 total cores
 distrk:  each k-point on    8 cores,    1 groups
 distr:  one band on NCORES_PER_BAND=   1 cores,    8 groups


--------------------------------------------------------------------------------------------------------


 INCAR:
 POTCAR:    PAW_PBE Ba_sv 06Sep2000               
 POTCAR:    PAW_PBE Ti 08Apr2002                  
 POTCAR:    PAW_PBE O 08Apr2002                   
 POTCAR:    PAW_PBE H 15Jun2001                   

 ----------------------------------------------------------------------------- 
|                                                                             |
|           W    W    AA    RRRRR   N    N  II  N    N   GGGG   !!!           |
|           W    W   A  A   R    R  NN   N  II  NN   N  G    G  !!!           |
|           W    W  A    A  R    R  N N  N  II  N N  N  G       !!!           |
|           W WW W  AAAAAA  RRRRR   N  N N  II  N  N N  G  GGG   !            |
|           WW  WW  A    A  R   R   N   NN  II  N   NN  G    G                |
|           W    W  A    A  R    R  N    N  II  N    N   GGGG   !!!           |
|                                                                             |
|      For optimal performance we recommend to set                            |
|        NCORE= 4 - approx SQRT( number of cores)                             |
|      NCORE specifies how many cores store one orbital (NPAR=cpu/NCORE).     |
|      This setting can  greatly improve the performance of VASP for DFT.     |
|      The default, NPAR=number of cores might be grossly inefficient         |
|      on modern multi-core architectures or massively parallel machines.     |
|      Do your own testing !!!!                                               |
|      Unfortunately you need to use the default for GW and RPA calculations. |
|      (for HF NCORE is supported but not extensively tested yet)             |
|                                                                             |
 ----------------------------------------------------------------------------- 

 POTCAR:    PAW_PBE Ba_sv 06Sep2000               
   SHA256 =  db99e82e473f9273fc04f241d4a23dc413358649e2d1724098d22351b75b003b Ba
   COPYR  = (c) Copyright 06Sep2000 Georg Kresse                                
   COPYR  = This file is part of the software VASP. Any use, copying, and all ot
   COPYR  = If you do not have a valid VASP license, you may not use, copy or di
   VRHFIN =Ba: 5s5p6s                                                           
   LEXCH  = PE                                                                  
   EATOM  =   700.8560 eV,   51.5115 Ry                                         
                                                                                
   TITEL  = PAW_PBE Ba_sv 06Sep2000                                             
   LULTRA =        F    use ultrasoft PP ?                                      
   IUNSCR =        1    unscreen: 0-lin 1-nonlin 2-no                           
   RPACOR =    2.400    partial core radius                                     
   POMASS =  137.327; ZVAL   =   10.000    mass and valenz                      
   RCORE  =    2.800    outmost cutoff radius                                   
   RWIGS  =    3.740; RWIGS  =    1.979    wigner-seitz radius (au A)           
   ENMAX  =  187.181; ENMIN  =  140.386 eV                                      
   RCLOC  =    2.516    cutoff for local pot                                    
   LCOR   =        T    correct aug charges                                     
   LPAW   =        T    paw PP                                                  
   EAUG   =  351.165                                                            
   DEXC   =    0.000                                                            
   RMAX   =    2.865    core radius for proj-oper                               
   RAUG   =    1.300    factor for augmentation sphere                          
   RDEP   =    2.976    radius for radial grids                                 
   RDEPT  =    2.289    core radius for aug-charge                              
                                                                                
   Atomic configuration                                                         
   13 entries                                                                   
     n  l   j            E        occ.                                          
     1  0  0.50    -37249.5946   2.0000                                         
     2  0  0.50     -5887.1925   2.0000                                         
     2  1  1.50     -5278.3977   6.0000                                         
     3  0  0.50     -1242.7293   2.0000                                         
     3  1  1.50     -1047.6609   6.0000                                         
     3  2  2.50      -764.6158  10.0000                                         
     4  0  0.50      -243.8228   2.0000                                         
     4  1  1.50      -180.9218   6.0000                                         
     4  2  2.50       -89.6477  10.0000                                         
     5  0  0.50       -33.6549   2.0000                                         
     6  0  0.50        -3.2247   1.9900                                         
     5  1  1.50       -18.7193   6.0000                                         
     5  2  2.50        -2.0115   0.0100                                         
   Description                                                                  
     l       E           TYP  RCUT    TYP  RCUT                                 
     0    -33.6549039     23  2.800                                             
     0     -3.2246942     23  2.800                                             
     1    -18.7193050     23  2.700                                             
     1     27.2116520     23  2.700                                             
     2     -2.0115002     23  2.700                                             
     2      0.3057420     23  2.700                                             
  local pseudopotential read in
  partial core-charges read in
  partial kinetic energy density read in
  atomic valenz-charges read in
  non local Contribution for L=           0  read in
    real space projection operators read in
  non local Contribution for L=           0  read in
    real space projection operators read in
  non local Contribution for L=           1  read in
    real space projection operators read in
  non local Contribution for L=           1  read in
    real space projection operators read in
  non local Contribution for L=           2  read in
    real space projection operators read in
  non local Contribution for L=           2  read in
    real space projection operators read in
    PAW grid and wavefunctions read in
 
   number of l-projection  operators is LMAX  =           6
   number of lm-projection operators is LMMAX =          18
 
 POTCAR:    PAW_PBE Ti 08Apr2002                  
   SHA256 =  f8e8f1d080d9e9b45e792f1068744b07aba8441d1e7ce11486a5d4c0f5a1479e Ti
   COPYR  = (c) Copyright 08Apr2002 Georg Kresse                                
   COPYR  = This file is part of the software VASP. Any use, copying, and all ot
   COPYR  = If you do not have a valid VASP license, you may not use, copy or di
   VRHFIN =Ti: d3 s1                                                            
   LEXCH  = PE                                                                  
   EATOM  =    94.7928 eV,    6.9671 Ry                                         
                                                                                
   TITEL  = PAW_PBE Ti 08Apr2002                                                
   LULTRA =        F    use ultrasoft PP ?                                      
   IUNSCR =        1    unscreen: 0-lin 1-nonlin 2-no                           
   RPACOR =    2.200    partial core radius                                     
   POMASS =   47.880; ZVAL   =    4.000    mass and valenz                      
   RCORE  =    2.800    outmost cutoff radius                                   
   RWIGS  =    2.500; RWIGS  =    1.323    wigner-seitz radius (au A)           
   ENMAX  =  178.330; ENMIN  =  133.747 eV                                      
   RCLOC  =    2.215    cutoff for local pot                                    
   LCOR   =        T    correct aug charges                                     
   LPAW   =        T    paw PP                                                  
   EAUG   =  328.883                                                            
   DEXC   =    0.000                                                            
   RMAX   =    2.868    core radius for proj-oper                               
   RAUG   =    1.300    factor for augmentation sphere                          
   RDEP   =    2.885    radius for radial grids                                 
   RDEPT  =    2.320    core radius for aug-charge                              
                                                                                
   Atomic configuration                                                         
    9 entries                                                                   
     n  l   j            E        occ.                                          
     1  0  0.50     -4865.3608   2.0000                                         
     2  0  0.50      -533.1367   2.0000                                         
     2  1  1.50      -440.5031   6.0000                                         
     3  0  0.50       -59.3186   2.0000                                         
     3  1  1.50       -35.7012   6.0000                                         
     3  2  2.50        -1.9157   3.0000                                         
     4  0  0.50        -3.7291   1.0000                                         
     4  1  1.50        -4.0817   0.0000                                         
     4  3  2.50        -1.3606   0.0000                                         
   Description                                                                  
     l       E           TYP  RCUT    TYP  RCUT                                 
     2     -1.9156924     23  2.800                                             
     2     -0.4062961     23  2.800                                             
     0     -3.7290832     23  2.800                                             
     0     20.4087390     23  2.800                                             
     1     -5.4423304     23  2.800                                             
  local pseudopotential read in
  partial core-charges read in
  partial kinetic energy density read in
  atomic valenz-charges read in
  non local Contribution for L=           2  read in
    real space projection operators read in
  non local Contribution for L=           2  read in
    real space projection operators read in
  non local Contribution for L=           0  read in
    real space projection operators read in
  non local Contribution for L=           0  read in
    real space projection operators read in
  non local Contribution for L=           1  read in
    real space projection operators read in
    PAW grid and wavefunctions read in
 
   number of l-projection  operators is LMAX  =           5
   number of lm-projection operators is LMMAX =          15
 
 POTCAR:    PAW_PBE O 08Apr2002                   
   SHA256 =  818f92134a0a090dccd8ba1447fa70422a3b330e708bb4f08108d8ae51209ddf O/
   COPYR  = (c) Copyright 08Apr2002 Georg Kresse                                
   COPYR  = This file is part of the software VASP. Any use, copying, and all ot
   COPYR  = If you do not have a valid VASP license, you may not use, copy or di
   VRHFIN =O: s2p4                                                              
   LEXCH  = PE                                                                  
   EATOM  =   432.3788 eV,   31.7789 Ry                                         
                                                                                
   TITEL  = PAW_PBE O 08Apr2002                                                 
   LULTRA =        F    use ultrasoft PP ?                                      
   IUNSCR =        1    unscreen: 0-lin 1-nonlin 2-no                           
   RPACOR =    1.200    partial core radius                                     
   POMASS =   16.000; ZVAL   =    6.000    mass and valenz                      
   RCORE  =    1.520    outmost cutoff radius                                   
   RWIGS  =    1.550; RWIGS  =    0.820    wigner-seitz radius (au A)           
   ENMAX  =  400.000; ENMIN  =  300.000 eV                                      
   ICORE  =        2    local potential                                         
   LCOR   =        T    correct aug charges                                     
   LPAW   =        T    paw PP                                                  
   EAUG   =  605.392                                                            
   DEXC   =    0.000                                                            
   RMAX   =    1.553    core radius for proj-oper                               
   RAUG   =    1.300    factor for augmentation sphere                          
   RDEP   =    1.550    radius for radial grids                                 
   RDEPT  =    1.329    core radius for aug-charge                              
                                                                                
   Atomic configuration                                                         
    4 entries                                                                   
     n  l   j            E        occ.                                          
     1  0  0.50      -514.6923   2.0000                                         
     2  0  0.50       -23.9615   2.0000                                         
     2  1  0.50        -9.0305   4.0000                                         
     3  2  1.50        -9.5241   0.0000                                         
   Description                                                                  
     l       E           TYP  RCUT    TYP  RCUT                                 
     0    -23.9615318     23  1.200                                             
     0     -9.5240782     23  1.200                                             
     1     -9.0304911     23  1.520                                             
     1      8.1634956     23  1.520                                             
     2     -9.5240782      7  1.500                                             
  local pseudopotential read in
  partial core-charges read in
  partial kinetic energy density read in
  kinetic energy density of atom read in
  atomic valenz-charges read in
  non local Contribution for L=           0  read in
    real space projection operators read in
  non local Contribution for L=           0  read in
    real space projection operators read in
  non local Contribution for L=           1  read in
    real space projection operators read in
  non local Contribution for L=           1  read in
    real space projection operators read in
    PAW grid and wavefunctions read in
 
   number of l-projection  operators is LMAX  =           4
   number of lm-projection operators is LMMAX =           8
 
 POTCAR:    PAW_PBE H 15Jun2001                   
   SHA256 =  030f79b5d3ab3cf0e668861823c8fb652ff669f3e15e46930bd03bfd63a607b6 H/
   COPYR  = (c) Copyright 15Jun2001 Georg Kresse                                
   COPYR  = This file is part of the software VASP. Any use, copying, and all ot
   COPYR  = If you do not have a valid VASP license, you may not use, copy or di
   VRHFIN =H: ultrasoft test                                                    
   LEXCH  = PE                                                                  
   EATOM  =    12.4884 eV,    0.9179 Ry                                         
                                                                                
   TITEL  = PAW_PBE H 15Jun2001                                                 
   LULTRA =        F    use ultrasoft PP ?                                      
   IUNSCR =        0    unscreen: 0-lin 1-nonlin 2-no                           
   RPACOR =    0.000    partial core radius                                     
   POMASS =    1.000; ZVAL   =    1.000    mass and valenz                      
   RCORE  =    1.100    outmost cutoff radius                                   
   RWIGS  =    0.700; RWIGS  =    0.370    wigner-seitz radius (au A)           
   ENMAX  =  250.000; ENMIN  =  200.000 eV                                      
   RCLOC  =    0.701    cutoff for local pot                                    
   LCOR   =        T    correct aug charges                                     
   LPAW   =        T    paw PP                                                  
   EAUG   =  400.000                                                            
   RMAX   =    1.123    core radius for proj-oper                               
   RAUG   =    1.200    factor for augmentation sphere                          
   RDEP   =    1.112    radius for radial grids                                 
   RDEPT  =    0.926    core radius for aug-charge                              
                                                                                
   Atomic configuration                                                         
    2 entries                                                                   
     n  l   j            E        occ.                                          
     1  0  0.50        -6.4927   1.0000                                         
     2  1  0.50        -3.4015   0.0000                                         
   Description                                                                  
     l       E           TYP  RCUT    TYP  RCUT                                 
     0     -6.4927494     23  1.100                                             
     0      6.8029130     23  1.100                                             
     1     -4.0817478     23  1.100                                             
  local pseudopotential read in
  atomic valenz-charges read in
  non local Contribution for L=           0  read in
    real space projection operators read in
  non local Contribution for L=           0  read in
    real space projection operators read in
  non local Contribution for L=           1  read in
    real space projection operators read in
    PAW grid and wavefunctions read in
 
   number of l-projection  operators is LMAX  =           3
   number of lm-projection operators is LMMAX =           5
 
  PAW_PBE Ba_sv 06Sep2000               :
 energy of atom  1       EATOM= -700.8560
 kinetic energy error for atom=    0.0005 (will be added to EATOM!!)
  PAW_PBE Ti 08Apr2002                  :
 energy of atom  2       EATOM=  -94.7928
 kinetic energy error for atom=    0.0002 (will be added to EATOM!!)
  PAW_PBE O 08Apr2002                   :
 energy of atom  3       EATOM= -432.3788
 kinetic energy error for atom=    0.0224 (will be added to EATOM!!)
  PAW_PBE H 15Jun2001                   :
 energy of atom  4       EATOM=  -12.4884
 kinetic energy error for atom=    0.0020 (will be added to EATOM!!)
 
 
 POSCAR: Ba Ti O  H                              
  positions in cartesian coordinates
  No initial velocities read in
 exchange correlation table for  LEXCH =        8
   RHO(1)=    0.500       N(1)  =     2000
   RHO(2)=  100.500       N(2)  =     4000
 


--------------------------------------------------------------------------------------------------------


 ion  position               nearest neighbor table
   1  0.000  0.000  0.000-   3 2.85   4 2.85   3 2.85   4 2.85   3 2.85   4 2.85   3 2.85   4 2.85
                             2 3.49   2 3.49   2 3.49   2 3.49   2 3.49   2 3.49   2 3.49   2 3.49
   2  0.500  0.500  0.500-   3 2.02   4 2.02   5 2.02   4 2.02   3 2.02   5 2.02   1 3.49   1 3.49
                             1 3.49   1 3.49   1 3.49   1 3.49   1 3.49   1 3.49
   3  0.500  0.000  0.500-   2 2.02   2 2.02   1 2.85   1 2.85   1 2.85   1 2.85
   4  0.500  0.500  0.000-   2 2.02   2 2.02   1 2.85   1 2.85   1 2.85   1 2.85
   5  0.000  0.500  0.500-   2 2.02   2 2.02
 
  LATTYP: Found a simple cubic cell.
 ALAT       =     4.0355830193
  
  Lattice vectors:
  
 A1 = (   4.0355830193,   0.0000000000,   0.0000000000)
 A2 = (   0.0000000000,   4.0355830193,   0.0000000000)
 A3 = (   0.0000000000,   0.0000000000,   4.0355830193)


Analysis of symmetry for initial positions (statically):
=====================================================================
 Subroutine PRICEL returns:
 Original cell was already a primitive cell.
 

 Routine SETGRP: Setting up the symmetry group for a 
 simple cubic supercell.


 Subroutine GETGRP returns: Found 16 space group operations
 (whereof 16 operations were pure point group operations)
 out of a pool of 48 trial point group operations.


The static configuration has the point symmetry D_4h.


Analysis of symmetry for dynamics (positions and initial velocities):
=====================================================================
 Subroutine PRICEL returns:
 Original cell was already a primitive cell.
 

 Routine SETGRP: Setting up the symmetry group for a 
 simple cubic supercell.


 Subroutine GETGRP returns: Found 16 space group operations
 (whereof 16 operations were pure point group operations)
 out of a pool of 48 trial point group operations.


The dynamic configuration has the point symmetry D_4h.


 Subroutine INISYM returns: Found 16 space group operations
 (whereof 16 operations are pure point group operations),
 and found     1 'primitive' translations

 
 
 KPOINTS: KPOINTS created by Atomic Simulation Env

Automatic generation of k-mesh.
Space group operators:
 irot       det(A)        alpha          n_x          n_y          n_z        tau_x        tau_y        tau_z
    1     1.000000     0.000000     1.000000     0.000000     0.000000     0.000000     0.000000     0.000000
    2    -1.000000     0.000000     1.000000     0.000000     0.000000     0.000000     0.000000     0.000000
    3     1.000000   180.000000     0.000000     0.707107     0.707107     0.000000     0.000000     0.000000
    4    -1.000000   180.000000     0.000000     0.707107     0.707107     0.000000     0.000000     0.000000
    5     1.000000   180.000000     0.000000     0.000000     1.000000     0.000000     0.000000     0.000000
    6    -1.000000   180.000000     0.000000     0.000000     1.000000     0.000000     0.000000     0.000000
    7     1.000000    90.000000    -1.000000     0.000000     0.000000     0.000000     0.000000     0.000000
    8    -1.000000    90.000000    -1.000000     0.000000     0.000000     0.000000     0.000000     0.000000
    9     1.000000   180.000000     1.000000     0.000000     0.000000     0.000000     0.000000     0.000000
   10    -1.000000   180.000000     1.000000     0.000000     0.000000     0.000000     0.000000     0.000000
   11     1.000000    90.000000     1.000000     0.000000     0.000000     0.000000     0.000000     0.000000
   12    -1.000000    90.000000     1.000000     0.000000     0.000000     0.000000     0.000000     0.000000
   13     1.000000   180.000000     0.000000     1.000000     0.000000     0.000000     0.000000     0.000000
   14    -1.000000   180.000000     0.000000     1.000000     0.000000     0.000000     0.000000     0.000000
   15     1.000000   180.000000     0.000000    -0.707107     0.707107     0.000000     0.000000     0.000000
   16    -1.000000   180.000000     0.000000    -0.707107     0.707107     0.000000     0.000000     0.000000
 
 Subroutine IBZKPT returns following result:
 ===========================================
 
 Found     18 irreducible k-points:
 
 Following reciprocal coordinates:
            Coordinates               Weight
  0.000000  0.000000  0.000000      1.000000
  0.200000  0.000000  0.000000      2.000000
  0.400000  0.000000  0.000000      2.000000
  0.000000  0.200000  0.000000      4.000000
  0.200000  0.200000  0.000000      8.000000
  0.400000  0.200000  0.000000      8.000000
  0.000000  0.400000  0.000000      4.000000
  0.200000  0.400000  0.000000      8.000000
  0.400000  0.400000  0.000000      8.000000
  0.000000  0.200000  0.200000      4.000000
  0.200000  0.200000  0.200000      8.000000
  0.400000  0.200000  0.200000      8.000000
  0.000000  0.400000  0.200000      8.000000
  0.200000  0.400000  0.200000     16.000000
  0.400000  0.400000  0.200000     16.000000
  0.000000  0.400000  0.400000      4.000000
  0.200000  0.400000  0.400000      8.000000
  0.400000  0.400000  0.400000      8.000000
 
 Following cartesian coordinates:
            Coordinates               Weight
  0.000000  0.000000  0.000000      1.000000
  0.049559  0.000000  0.000000      2.000000
  0.099118  0.000000  0.000000      2.000000
  0.000000  0.049559  0.000000      4.000000
  0.049559  0.049559  0.000000      8.000000
  0.099118  0.049559  0.000000      8.000000
  0.000000  0.099118  0.000000      4.000000
  0.049559  0.099118  0.000000      8.000000
  0.099118  0.099118  0.000000      8.000000
  0.000000  0.049559  0.049559      4.000000
  0.049559  0.049559  0.049559      8.000000
  0.099118  0.049559  0.049559      8.000000
  0.000000  0.099118  0.049559      8.000000
  0.049559  0.099118  0.049559     16.000000
  0.099118  0.099118  0.049559     16.000000
  0.000000  0.099118  0.099118      4.000000
  0.049559  0.099118  0.099118      8.000000
  0.099118  0.099118  0.099118      8.000000
 


--------------------------------------------------------------------------------------------------------




 Dimension of arrays:
   k-points           NKPTS =     18   k-points in BZ     NKDIM =     18   number of bands    NBANDS=     24
   number of dos      NEDOS =    301   number of ions     NIONS =      5
   non local maximal  LDIM  =      6   non local SUM 2l+1 LMDIM =     18
   total plane-waves  NPLWV =  27000
   max r-space proj   IRMAX =      1   max aug-charges    IRDMAX=  28569
   dimension x,y,z NGX =    30 NGY =   30 NGZ =   30
   dimension x,y,z NGXF=    60 NGYF=   60 NGZF=   60
   support grid    NGXF=    60 NGYF=   60 NGZF=   60
   ions per type =               1   1   2   1
 NGX,Y,Z   is equivalent  to a cutoff of  12.36, 12.36, 12.36 a.u.
 NGXF,Y,Z  is equivalent  to a cutoff of  24.72, 24.72, 24.72 a.u.


 I would recommend the setting:
   dimension x,y,z NGX =    29 NGY =   29 NGZ =   29
 SYSTEM =  unknown system                          
 POSCAR =  Ba Ti O  H                              

 Startparameter for this run:
   NWRITE =      2    write-flag & timer
   PREC   = accura    normal or accurate (medium, high low for compatibility)
   ISTART =      1    job   : 0-new  1-cont  2-samecut
   ICHARG =      0    charge: 1-file 2-atom 10-const
   ISPIN  =      1    spin polarized calculation?
   LNONCOLLINEAR =      F non collinear calculations
   LSORBIT =      F    spin-orbit coupling
   INIWAV =      1    electr: 0-lowe 1-rand  2-diag
   LASPH  =      F    aspherical Exc in radial PAW
   METAGGA=      F    non-selfconsistent MetaGGA calc.

 Electronic Relaxation 1
   ENCUT  =  500.0 eV  36.75 Ry    6.06 a.u.   7.36  7.36  7.36*2*pi/ulx,y,z
   ENINI  =  500.0     initial cutoff
   ENAUG  =  605.4 eV  augmentation charge cutoff
   NELM   =     60;   NELMIN=  2; NELMDL=  0     # of ELM steps 
   EDIFF  = 0.1E-06   stopping-criterion for ELM
   LREAL  =      F    real-space projection
   NLSPLINE    = F    spline interpolate recip. space projectors
   LCOMPAT=      F    compatible to vasp.4.4
   GGA_COMPAT  = T    GGA compatible to vasp.4.4-vasp.4.6
   LMAXPAW     = -100 max onsite density
   LMAXMIX     =    2 max onsite mixed and CHGCAR
   VOSKOWN=      0    Vosko Wilk Nusair interpolation
   ROPT   =    0.00000   0.00000   0.00000   0.00000
 Ionic relaxation
   EDIFFG = -.1E-03   stopping-criterion for IOM
   NSW    =    300    number of steps for IOM
   NBLOCK =      1;   KBLOCK =    300    inner block; outer block 
   IBRION =      1    ionic relax: 0-MD 1-quasi-New 2-CG
   NFREE  =      0    steps in history (QN), initial steepest desc. (CG)
   ISIF   =      3    stress and relaxation
   IWAVPR =     11    prediction:  0-non 1-charg 2-wave 3-comb
   ISYM   =      2    0-nonsym 1-usesym 2-fastsym
   LCORR  =      T    Harris-Foulkes like correction to forces

   POTIM  = 0.5000    time-step for ionic-motion
   TEIN   =    0.0    initial temperature
   TEBEG  =    0.0;   TEEND  =   0.0 temperature during run
   SMASS  =  -3.00    Nose mass-parameter (am)
   estimated Nose-frequenzy (Omega)   =  0.10E-29 period in steps =****** mass=  -0.372E-27a.u.
   SCALEE = 1.0000    scale energy and forces
   NPACO  =    256;   APACO  = 16.0  distance and # of slots for P.C.
   PSTRESS=    0.0 pullay stress

  Mass of Ions in am
   POMASS = 137.33 47.88 16.00  1.00
  Ionic Valenz
   ZVAL   =  10.00  4.00  6.00  1.00
  Atomic Wigner-Seitz radii
   RWIGS  =  -1.00 -1.00 -1.00 -1.00
  virtual crystal weights 
   VCA    =   1.00  1.00  1.00  1.00
   NELECT =      27.0000    total number of electrons
   NUPDOWN=      -1.0000    fix difference up-down

 DOS related values:
   EMIN   =  10.00;   EMAX   =-10.00  energy-range for DOS
   EFERMI =   0.00
   ISMEAR =     1;   SIGMA  =   0.20  broadening in eV -4-tet -1-fermi 0-gaus

 Electronic relaxation 2 (details)
   IALGO  =     38    algorithm
   LDIAG  =      T    sub-space diagonalisation (order eigenvalues)
   LSUBROT=      F    optimize rotation matrix (better conditioning)
   TURBO    =      0    0=normal 1=particle mesh
   IRESTART =      0    0=no restart 2=restart with 2 vectors
   NREBOOT  =      0    no. of reboots
   NMIN     =      0    reboot dimension
   EREF     =   0.00    reference energy to select bands
   IMIX   =      4    mixing-type and parameters
     AMIX     =   0.40;   BMIX     =  1.00
     AMIX_MAG =   1.60;   BMIX_MAG =  1.00
     AMIN     =   0.10
     WC   =   100.;   INIMIX=   1;  MIXPRE=   1;  MAXMIX= -45

 Intra band minimization:
   WEIMIN = 0.0010     energy-eigenvalue tresh-hold
   EBREAK =  0.10E-08  absolut break condition
   DEPER  =   0.30     relativ break condition  

   TIME   =   0.40     timestep for ELM

  volume/ion in A,a.u.               =      13.14        88.70
  Fermi-wavevector in a.u.,A,eV,Ry     =   1.216998  2.299792 20.151367  1.481084
  Thomas-Fermi vector in A             =   2.352333
 
 Write flags
   LWAVE  =      F    write WAVECAR
   LCHARG =      T    write CHGCAR
   LVTOT  =      F    write LOCPOT, total local potential
   LVHAR  =      F    write LOCPOT, Hartree potential only
   LELF   =      F    write electronic localiz. function (ELF)
   LORBIT =      0    0 simple, 1 ext, 2 COOP (PROOUT)


 Dipole corrections
   LMONO  =      F    monopole corrections only (constant potential shift)
   LDIPOL =      F    correct potential (dipole corrections)
   IDIPOL =      0    1-x, 2-y, 3-z, 4-all directions 
   EPSILON=  1.0000000 bulk dielectric constant

 Exchange correlation treatment:
   GGA     =    PE    GGA type
   LEXCH   =     8    internal setting for exchange type
   VOSKOWN=      0    Vosko Wilk Nusair interpolation
   LHFCALC =     F    Hartree Fock is set to
   LHFONE  =     F    Hartree Fock one center treatment
   AEXX    =    0.0000 exact exchange contribution

 Linear response parameters
   LEPSILON=     F    determine dielectric tensor
   LRPA    =     F    only Hartree local field effects (RPA)
   LNABLA  =     F    use nabla operator in PAW spheres
   LVEL    =     F    velocity operator in full k-point grid
   LINTERFAST=   F  fast interpolation
   KINTER  =     0    interpolate to denser k-point grid
   CSHIFT  =0.1000    complex shift for real part using Kramers Kronig
   OMEGAMAX=  -1.0    maximum frequency
   DEG_THRESHOLD= 0.2000000E-02 threshold for treating states as degnerate
   RTIME   =    0.100 relaxation time in fs

 Orbital magnetization related:
   ORBITALMAG=     F  switch on orbital magnetization
   LCHIMAG   =     F  perturbation theory with respect to B field
   DQ        =  0.001000  dq finite difference perturbation B field



--------------------------------------------------------------------------------------------------------


 quasi-Newton-method for relaxation of ions
 charge density and potential will be updated during run
 non-spin polarized calculation
 Variant of blocked Davidson
 Davidson routine will perform the subspace rotation
 perform sub-space diagonalisation
    after iterative eigenvector-optimisation
 modified Broyden-mixing scheme, WC =      100.0
 initial mixing is a Kerker type mixing with AMIX =  0.4000 and BMIX =      1.0000
 Hartree-type preconditioning will be used
 using additional bands           10
 reciprocal scheme for non local part
 use partial core corrections
 calculate Harris-corrections to forces 
   (improved forces if not selfconsistent)
 use gradient corrections 
 use of overlap-Matrix (Vanderbilt PP)
 Methfessel and Paxton  Order N= 1 SIGMA  =   0.20


--------------------------------------------------------------------------------------------------------


  energy-cutoff  :      500.00
  volume of cell :       65.72
      direct lattice vectors                 reciprocal lattice vectors
     4.035583019  0.000000000  0.000000000     0.247795670  0.000000000  0.000000000
     0.000000000  4.035583019  0.000000000     0.000000000  0.247795670  0.000000000
     0.000000000  0.000000000  4.035583019     0.000000000  0.000000000  0.247795670

  length of vectors
     4.035583019  4.035583019  4.035583019     0.247795670  0.247795670  0.247795670


 
 old parameters found on file WAVECAR:
  energy-cutoff  :      500.00
  volume of cell :       65.72
      direct lattice vectors                 reciprocal lattice vectors
     4.035583019  0.000000000  0.000000000     0.247795670  0.000000000  0.000000000
     0.000000000  4.035583019  0.000000000     0.000000000  0.247795670  0.000000000
     0.000000000  0.000000000  4.035583019     0.000000000  0.000000000  0.247795670

  length of vectors

 
 k-points in units of 2pi/SCALE and weight: KPOINTS created by Atomic Simulation Env
   0.00000000  0.00000000  0.00000000       0.008
   0.04955913  0.00000000  0.00000000       0.016
   0.09911827  0.00000000  0.00000000       0.016
   0.00000000  0.04955913  0.00000000       0.032
   0.04955913  0.04955913  0.00000000       0.064
   0.09911827  0.04955913  0.00000000       0.064
   0.00000000  0.09911827  0.00000000       0.032
   0.04955913  0.09911827  0.00000000       0.064
   0.09911827  0.09911827  0.00000000       0.064
   0.00000000  0.04955913  0.04955913       0.032
   0.04955913  0.04955913  0.04955913       0.064
   0.09911827  0.04955913  0.04955913       0.064
   0.00000000  0.09911827  0.04955913       0.064
   0.04955913  0.09911827  0.04955913       0.128
   0.09911827  0.09911827  0.04955913       0.128
   0.00000000  0.09911827  0.09911827       0.032
   0.04955913  0.09911827  0.09911827       0.064
   0.09911827  0.09911827  0.09911827       0.064
 
 k-points in reciprocal lattice and weights: KPOINTS created by Atomic Simulation Env
   0.00000000  0.00000000  0.00000000       0.008
   0.20000000  0.00000000  0.00000000       0.016
   0.40000000  0.00000000  0.00000000       0.016
   0.00000000  0.20000000  0.00000000       0.032
   0.20000000  0.20000000  0.00000000       0.064
   0.40000000  0.20000000  0.00000000       0.064
   0.00000000  0.40000000  0.00000000       0.032
   0.20000000  0.40000000  0.00000000       0.064
   0.40000000  0.40000000  0.00000000       0.064
   0.00000000  0.20000000  0.20000000       0.032
   0.20000000  0.20000000  0.20000000       0.064
   0.40000000  0.20000000  0.20000000       0.064
   0.00000000  0.40000000  0.20000000       0.064
   0.20000000  0.40000000  0.20000000       0.128
   0.40000000  0.40000000  0.20000000       0.128
   0.00000000  0.40000000  0.40000000       0.032
   0.20000000  0.40000000  0.40000000       0.064
   0.40000000  0.40000000  0.40000000       0.064
 
 position of ions in fractional coordinates (direct lattice) 
   0.00000000  0.00000000  0.00000000
   0.50000000  0.50000000  0.50000000
   0.50000000  0.00000000  0.50000000
   0.50000000  0.50000000  0.00000000
   0.00000000  0.50000000  0.50000000
 
 position of ions in cartesian coordinates  (Angst):
   0.00000000  0.00000000  0.00000000
   2.01779151  2.01779151  2.01779151
   2.01779151  0.00000000  2.01779151
   2.01779151  2.01779151  0.00000000
   0.00000000  2.01779151  2.01779151
 


--------------------------------------------------------------------------------------------------------


 k-point  1 :   0.0000 0.0000 0.0000  plane waves:    1743
 k-point  2 :   0.2000 0.0000 0.0000  plane waves:    1679
 k-point  3 :   0.4000 0.0000 0.0000  plane waves:    1678
 k-point  4 :   0.0000 0.2000 0.0000  plane waves:    1679
 k-point  5 :   0.2000 0.2000 0.0000  plane waves:    1683
 k-point  6 :   0.4000 0.2000 0.0000  plane waves:    1663
 k-point  7 :   0.0000 0.4000 0.0000  plane waves:    1678
 k-point  8 :   0.2000 0.4000 0.0000  plane waves:    1663
 k-point  9 :   0.4000 0.4000 0.0000  plane waves:    1656
 k-point 10 :   0.0000 0.2000 0.2000  plane waves:    1683
 k-point 11 :   0.2000 0.2000 0.2000  plane waves:    1674
 k-point 12 :   0.4000 0.2000 0.2000  plane waves:    1664
 k-point 13 :   0.0000 0.4000 0.2000  plane waves:    1663
 k-point 14 :   0.2000 0.4000 0.2000  plane waves:    1664
 k-point 15 :   0.4000 0.4000 0.2000  plane waves:    1669
 k-point 16 :   0.0000 0.4000 0.4000  plane waves:    1656
 k-point 17 :   0.2000 0.4000 0.4000  plane waves:    1669
 k-point 18 :   0.4000 0.4000 0.4000  plane waves:    1661

 maximum and minimum number of plane-waves per node :      1743     1656

 maximum number of plane-waves:      1743
 maximum index in each direction: 
   IXMAX=    7   IYMAX=    7   IZMAX=    7
   IXMIN=   -7   IYMIN=   -7   IZMIN=   -7

 NGX is ok and might be reduce to  30
 NGY is ok and might be reduce to  30
 NGZ is ok and might be reduce to  30

 serial   3D FFT for wavefunctions
 parallel 3D FFT for charge:
    minimum data exchange during FFTs selected (reduces bandwidth)


 total amount of memory used by VASP on root node    54170. kBytes
========================================================================

   base      :      30000. kBytes
   nonl-proj :      18221. kBytes
   fftplans  :       1096. kBytes
   grid      :       3221. kBytes
   one-center:         77. kBytes
   wavefun   :       1555. kBytes
 
     INWAV:  cpu time    0.0504: real time    0.0512
 Broyden mixing: mesh for mixing (old mesh)
   NGX = 15   NGY = 15   NGZ = 15
  (NGX  = 60   NGY  = 60   NGZ  = 60)
  gives a total of   3375 points

 charge density for first step will be calculated from the start-wavefunctions


--------------------------------------------------------------------------------------------------------


 Maximum index for augmentation-charges         3645 (set IRDMAX)


--------------------------------------------------------------------------------------------------------


 initial charge from wavefunction
 First call to EWALD:  gamma=   0.439
 Maximum number of real-space cells 3x 3x 3
 Maximum number of reciprocal cells 3x 3x 3

 FEWALD executed in parallel
    FEWALD:  cpu time    0.0031: real time    0.0031


----------------------------------------- Iteration    1(   1)  ---------------------------------------


    POTLOK:  cpu time    0.0317: real time    0.0317
    SETDIJ:  cpu time    0.0063: real time    0.0063
     EDDAV:  cpu time    0.4447: real time    0.4446
       DOS:  cpu time    0.0008: real time    0.0008
    CHARGE:  cpu time    0.0557: real time    0.0557
    MIXING:  cpu time    0.0008: real time    0.0008
    --------------------------------------------
      LOOP:  cpu time    0.5414: real time    0.5809

 eigenvalue-minimisations  :   864
 total energy-change (2. order) :-0.3370117E+02  (-0.1078590E+00)
 number of electron      26.9999982 magnetization 
 augmentation part        0.6852642 magnetization 

 Broyden mixing:
  rms(total) = 0.67538E-01    rms(broyden)= 0.67511E-01
  rms(prec ) = 0.14531E+00
  weight for this iteration     100.00

 Free energy of the ion-electron system (eV)
  ---------------------------------------------------
  alpha Z        PSCENC =       164.03168967
  Ewald energy   TEWEN  =     -1458.96537803
  -Hartree energ DENC   =      -342.16273249
  -exchange      EXHF   =         0.00000000
  -V(xc)+E(xc)   XCENC  =        49.65134064
  PAW double counting   =      2185.06107795    -2148.02833380
  entropy T*S    EENTRO =        -0.00391000
  eigenvalues    EBANDS =      -156.13232268
  atomic energy  EATOM  =      1672.84739955
  Solvation  Ediel_sol  =         0.00000000
  ---------------------------------------------------
  free energy    TOTEN  =       -33.70116919 eV

  energy without entropy =      -33.69725919  energy(sigma->0) =      -33.69986585


--------------------------------------------------------------------------------------------------------




----------------------------------------- Iteration    1(   2)  ---------------------------------------


    POTLOK:  cpu time    0.0308: real time    0.0308
    SETDIJ:  cpu time    0.0061: real time    0.0061
     EDDAV:  cpu time    0.5046: real time    0.5044
       DOS:  cpu time    0.0007: real time    0.0007
    CHARGE:  cpu time    0.0574: real time    0.0574
    MIXING:  cpu time    0.0008: real time    0.0008
    --------------------------------------------
      LOOP:  cpu time    0.6011: real time    0.9170

 eigenvalue-minimisations  :  1016
 total energy-change (2. order) : 0.6656450E-02  (-0.2599447E-02)
 number of electron      26.9999982 magnetization 
 augmentation part        0.6670914 magnetization 

 Broyden mixing:
  rms(total) = 0.51780E-01    rms(broyden)= 0.51775E-01
  rms(prec ) = 0.91817E-01
  weight for this iteration     100.00

 eigenvalues of (default mixing * dielectric matrix)
  average eigenvalue GAMMA=   0.8656
  0.8656

 Free energy of the ion-electron system (eV)
  ---------------------------------------------------
  alpha Z        PSCENC =       164.03168967
  Ewald energy   TEWEN  =     -1458.96537803
  -Hartree energ DENC   =      -341.85468382
  -exchange      EXHF   =         0.00000000
  -V(xc)+E(xc)   XCENC  =        49.61756952
  PAW double counting   =      2185.83730223    -2148.82911791
  entropy T*S    EENTRO =        -0.00479227
  eigenvalues    EBANDS =      -156.37450169
  atomic energy  EATOM  =      1672.84739955
  Solvation  Ediel_sol  =         0.00000000
  ---------------------------------------------------
  free energy    TOTEN  =       -33.69451274 eV

  energy without entropy =      -33.68972047  energy(sigma->0) =      -33.69291531


--------------------------------------------------------------------------------------------------------




----------------------------------------- Iteration    1(   3)  ---------------------------------------


    POTLOK:  cpu time    0.0309: real time    0.0310
    SETDIJ:  cpu time    0.0063: real time    0.0063
     EDDAV:  cpu time    0.5460: real time    0.5457
       DOS:  cpu time    0.0007: real time    0.0007
    CHARGE:  cpu time    0.0598: real time    0.0598
    MIXING:  cpu time    0.0009: real time    0.0009
    --------------------------------------------
      LOOP:  cpu time    0.6453: real time    0.9765

 eigenvalue-minimisations  :  1144
 total energy-change (2. order) : 0.2631918E-02  (-0.6356909E-03)
 number of electron      26.9999982 magnetization 
 augmentation part        0.6759796 magnetization 

 Broyden mixing:
  rms(total) = 0.24785E-01    rms(broyden)= 0.24783E-01
  rms(prec ) = 0.52465E-01
  weight for this iteration     100.00

 eigenvalues of (default mixing * dielectric matrix)
  average eigenvalue GAMMA=   1.4934
  0.6431  2.3438

 Free energy of the ion-electron system (eV)
  ---------------------------------------------------
  alpha Z        PSCENC =       164.03168967
  Ewald energy   TEWEN  =     -1458.96537803
  -Hartree energ DENC   =      -342.20913114
  -exchange      EXHF   =         0.00000000
  -V(xc)+E(xc)   XCENC  =        49.64950027
  PAW double counting   =      2189.89077308    -2152.87399432
  entropy T*S    EENTRO =        -0.00449148
  eigenvalues    EBANDS =      -156.05824843
  atomic energy  EATOM  =      1672.84739955
  Solvation  Ediel_sol  =         0.00000000
  ---------------------------------------------------
  free energy    TOTEN  =       -33.69188082 eV

  energy without entropy =      -33.68738934  energy(sigma->0) =      -33.69038366


--------------------------------------------------------------------------------------------------------




----------------------------------------- Iteration    1(   4)  ---------------------------------------


    POTLOK:  cpu time    0.0310: real time    0.0310
    SETDIJ:  cpu time    0.0063: real time    0.0063
     EDDAV:  cpu time    0.5066: real time    0.5064
       DOS:  cpu time    0.0007: real time    0.0007
    CHARGE:  cpu time    0.0573: real time    0.0573
    MIXING:  cpu time    0.0008: real time    0.0008
    --------------------------------------------
      LOOP:  cpu time    0.6032: real time    0.7664

 eigenvalue-minimisations  :  1048
 total energy-change (2. order) : 0.1226345E-02  (-0.3185455E-03)
 number of electron      26.9999982 magnetization 
 augmentation part        0.6708590 magnetization 

 Broyden mixing:
  rms(total) = 0.40569E-02    rms(broyden)= 0.40474E-02
  rms(prec ) = 0.63326E-02
  weight for this iteration     100.00

 eigenvalues of (default mixing * dielectric matrix)
  average eigenvalue GAMMA=   1.2688
  2.2608  0.9435  0.6021

 Free energy of the ion-electron system (eV)
  ---------------------------------------------------
  alpha Z        PSCENC =       164.03168967
  Ewald energy   TEWEN  =     -1458.96537803
  -Hartree energ DENC   =      -342.02465094
  -exchange      EXHF   =         0.00000000
  -V(xc)+E(xc)   XCENC  =        49.63635328
  PAW double counting   =      2193.56633222    -2156.55260601
  entropy T*S    EENTRO =        -0.00471253
  eigenvalues    EBANDS =      -156.22508168
  atomic energy  EATOM  =      1672.84739955
  Solvation  Ediel_sol  =         0.00000000
  ---------------------------------------------------
  free energy    TOTEN  =       -33.69065447 eV

  energy without entropy =      -33.68594195  energy(sigma->0) =      -33.68908363


--------------------------------------------------------------------------------------------------------




----------------------------------------- Iteration    1(   5)  ---------------------------------------


    POTLOK:  cpu time    0.0313: real time    0.0313
    SETDIJ:  cpu time    0.0063: real time    0.0063
     EDDAV:  cpu time    0.4797: real time    0.4796
       DOS:  cpu time    0.0007: real time    0.0007
    CHARGE:  cpu time    0.0577: real time    0.0578
    MIXING:  cpu time    0.0009: real time    0.0009
    --------------------------------------------
      LOOP:  cpu time    0.5772: real time    0.6484

 eigenvalue-minimisations  :   976
 total energy-change (2. order) :-0.1416431E-04  (-0.1485329E-04)
 number of electron      26.9999982 magnetization 
 augmentation part        0.6715610 magnetization 

 Broyden mixing:
  rms(total) = 0.32362E-02    rms(broyden)= 0.32348E-02
  rms(prec ) = 0.43150E-02
  weight for this iteration     100.00

 eigenvalues of (default mixing * dielectric matrix)
  average eigenvalue GAMMA=   1.3469
  2.2434  0.5985  1.2729  1.2729

 Free energy of the ion-electron system (eV)
  ---------------------------------------------------
  alpha Z        PSCENC =       164.03168967
  Ewald energy   TEWEN  =     -1458.96537803
  -Hartree energ DENC   =      -342.01163040
  -exchange      EXHF   =         0.00000000
  -V(xc)+E(xc)   XCENC  =        49.63611057
  PAW double counting   =      2193.24512581    -2156.22928064
  entropy T*S    EENTRO =        -0.00468884
  eigenvalues    EBANDS =      -156.24001632
  atomic energy  EATOM  =      1672.84739955
  Solvation  Ediel_sol  =         0.00000000
  ---------------------------------------------------
  free energy    TOTEN  =       -33.69066864 eV

  energy without entropy =      -33.68597980  energy(sigma->0) =      -33.68910569


--------------------------------------------------------------------------------------------------------




----------------------------------------- Iteration    1(   6)  ---------------------------------------


    POTLOK:  cpu time    0.0308: real time    0.0308
    SETDIJ:  cpu time    0.0062: real time    0.0062
     EDDAV:  cpu time    0.5119: real time    0.5119
       DOS:  cpu time    0.0007: real time    0.0007
    CHARGE:  cpu time    0.0577: real time    0.0577
    MIXING:  cpu time    0.0009: real time    0.0009
    --------------------------------------------
      LOOP:  cpu time    0.6089: real time    0.6993

 eigenvalue-minimisations  :  1056
 total energy-change (2. order) :-0.6299861E-05  (-0.1043615E-05)
 number of electron      26.9999982 magnetization 
 augmentation part        0.6713266 magnetization 

 Broyden mixing:
  rms(total) = 0.14683E-02    rms(broyden)= 0.14682E-02
  rms(prec ) = 0.23642E-02
  weight for this iteration     100.00

 eigenvalues of (default mixing * dielectric matrix)
  average eigenvalue GAMMA=   1.5002
  2.4860  2.4112  0.6041  1.0000  1.0000

 Free energy of the ion-electron system (eV)
  ---------------------------------------------------
  alpha Z        PSCENC =       164.03168967
  Ewald energy   TEWEN  =     -1458.96537803
  -Hartree energ DENC   =      -342.04540733
  -exchange      EXHF   =         0.00000000
  -V(xc)+E(xc)   XCENC  =        49.63817994
  PAW double counting   =      2192.58728186    -2155.57172327
  entropy T*S    EENTRO =        -0.00469561
  eigenvalues    EBANDS =      -156.20802172
  atomic energy  EATOM  =      1672.84739955
  Solvation  Ediel_sol  =         0.00000000
  ---------------------------------------------------
  free energy    TOTEN  =       -33.69067494 eV

  energy without entropy =      -33.68597933  energy(sigma->0) =      -33.68910974


--------------------------------------------------------------------------------------------------------




----------------------------------------- Iteration    1(   7)  ---------------------------------------


    POTLOK:  cpu time    0.0309: real time    0.0309
    SETDIJ:  cpu time    0.0058: real time    0.0063
     EDDAV:  cpu time    0.4949: real time    0.4950
       DOS:  cpu time    0.0007: real time    0.0007
    CHARGE:  cpu time    0.0582: real time    0.0581
    MIXING:  cpu time    0.0009: real time    0.0009
    --------------------------------------------
      LOOP:  cpu time    0.5921: real time    0.6421

 eigenvalue-minimisations  :  1024
 total energy-change (2. order) :-0.1382663E-05  (-0.3749332E-06)
 number of electron      26.9999982 magnetization 
 augmentation part        0.6713771 magnetization 

 Broyden mixing:
  rms(total) = 0.53324E-03    rms(broyden)= 0.53317E-03
  rms(prec ) = 0.68068E-03
  weight for this iteration     100.00

 eigenvalues of (default mixing * dielectric matrix)
  average eigenvalue GAMMA=   1.4010
  2.6859  2.2329  0.6027  0.9420  0.9712  0.9712

 Free energy of the ion-electron system (eV)
  ---------------------------------------------------
  alpha Z        PSCENC =       164.03168967
  Ewald energy   TEWEN  =     -1458.96537803
  -Hartree energ DENC   =      -342.03701737
  -exchange      EXHF   =         0.00000000
  -V(xc)+E(xc)   XCENC  =        49.63767968
  PAW double counting   =      2192.16932322    -2155.15295774
  entropy T*S    EENTRO =        -0.00469529
  eigenvalues    EBANDS =      -156.21672002
  atomic energy  EATOM  =      1672.84739955
  Solvation  Ediel_sol  =         0.00000000
  ---------------------------------------------------
  free energy    TOTEN  =       -33.69067632 eV

  energy without entropy =      -33.68598103  energy(sigma->0) =      -33.68911122


--------------------------------------------------------------------------------------------------------




----------------------------------------- Iteration    1(   8)  ---------------------------------------


    POTLOK:  cpu time    0.0312: real time    0.0312
    SETDIJ:  cpu time    0.0062: real time    0.0062
     EDDAV:  cpu time    0.4925: real time    0.4924
       DOS:  cpu time    0.0007: real time    0.0007
    CHARGE:  cpu time    0.0581: real time    0.0582
    MIXING:  cpu time    0.0010: real time    0.0010
    --------------------------------------------
      LOOP:  cpu time    0.5903: real time    0.6924

 eigenvalue-minimisations  :  1008
 total energy-change (2. order) : 0.1873771E-06  (-0.5268842E-07)
 number of electron      26.9999982 magnetization 
 augmentation part        0.6714393 magnetization 

 Broyden mixing:
  rms(total) = 0.17847E-03    rms(broyden)= 0.17840E-03
  rms(prec ) = 0.20675E-03
  weight for this iteration     100.00

 eigenvalues of (default mixing * dielectric matrix)
  average eigenvalue GAMMA=   1.2969
  2.6701  2.2209  1.0074  1.0074  0.6015  0.8427  0.7280

 Free energy of the ion-electron system (eV)
  ---------------------------------------------------
  alpha Z        PSCENC =       164.03168967
  Ewald energy   TEWEN  =     -1458.96537803
  -Hartree energ DENC   =      -342.03221821
  -exchange      EXHF   =         0.00000000
  -V(xc)+E(xc)   XCENC  =        49.63740826
  PAW double counting   =      2192.25785790    -2155.24144180
  entropy T*S    EENTRO =        -0.00469428
  eigenvalues    EBANDS =      -156.22129920
  atomic energy  EATOM  =      1672.84739955
  Solvation  Ediel_sol  =         0.00000000
  ---------------------------------------------------
  free energy    TOTEN  =       -33.69067613 eV

  energy without entropy =      -33.68598185  energy(sigma->0) =      -33.68911137


--------------------------------------------------------------------------------------------------------




----------------------------------------- Iteration    1(   9)  ---------------------------------------


    POTLOK:  cpu time    0.0304: real time    0.0308
    SETDIJ:  cpu time    0.0063: real time    0.0063
     EDDAV:  cpu time    0.3002: real time    0.3001
       DOS:  cpu time    0.0007: real time    0.0007
    --------------------------------------------
      LOOP:  cpu time    0.3387: real time    0.3918

 eigenvalue-minimisations  :   464
 total energy-change (2. order) : 0.4783715E-07  (-0.1081073E-08)
 number of electron      26.9999982 magnetization 
 augmentation part        0.6714393 magnetization 

 Free energy of the ion-electron system (eV)
  ---------------------------------------------------
  alpha Z        PSCENC =       164.03168967
  Ewald energy   TEWEN  =     -1458.96537803
  -Hartree energ DENC   =      -342.03182591
  -exchange      EXHF   =         0.00000000
  -V(xc)+E(xc)   XCENC  =        49.63737938
  PAW double counting   =      2192.29354749    -2155.27717818
  entropy T*S    EENTRO =        -0.00469427
  eigenvalues    EBANDS =      -156.22161578
  atomic energy  EATOM  =      1672.84739955
  Solvation  Ediel_sol  =         0.00000000
  ---------------------------------------------------
  free energy    TOTEN  =       -33.69067609 eV

  energy without entropy =      -33.68598181  energy(sigma->0) =      -33.68911133


--------------------------------------------------------------------------------------------------------




 average (electrostatic) potential at core
  the test charge radii are     1.2192  1.2598  0.7215  0.5201
  (the norm of the test charge is              1.0000)
       1 -35.4019       2 -26.5105       3 -71.7274       4 -71.7274       5 -32.6353
 
 
 
 E-fermi :   4.5048     XC(G=0): -10.5838     alpha+bet :-12.0839


 k-point     1 :       0.0000    0.0000    0.0000
  band No.  band energies     occupation 
      1     -23.4529      2.00000
      2     -14.7830      2.00000
      3     -14.2920      2.00000
      4      -8.5742      2.00000
      5      -8.5742      2.00000
      6      -8.5311      2.00000
      7      -1.6793      2.00000
      8      -0.1736      2.00000
      9      -0.1736      2.00000
     10       0.5581      2.00000
     11       0.6648      2.00000
     12       1.3923      2.00000
     13       1.3923      2.00000
     14       4.3284      2.01637
     15       4.3713      1.89605
     16       4.3713      1.89605
     17       6.4557     -0.00000
     18       6.5371     -0.00000
     19       6.7224     -0.00000
     20       7.4659     -0.00000
     21      10.0616      0.00000
     22      10.0616      0.00000
     23      10.0992      0.00000
     24      11.4880      0.00000

 k-point     2 :       0.2000    0.0000    0.0000
  band No.  band energies     occupation 
      1     -23.4219      2.00000
      2     -14.9247      2.00000
      3     -14.2790      2.00000
      4      -8.5236      2.00000
      5      -8.5236      2.00000
      6      -8.3984      2.00000
      7      -1.6969      2.00000
      8      -0.3916      2.00000
      9      -0.3916      2.00000
     10       0.3353      2.00000
     11       0.7197      2.00000
     12       1.3017      2.00000
     13       1.3017      2.00000
     14       4.3763      1.87620
     15       4.3763      1.87620
     16       4.3974      1.77957
     17       6.5377     -0.00000
     18       6.5412     -0.00000
     19       7.1443     -0.00000
     20       8.0731     -0.00000
     21       9.9619     -0.00000
     22      10.3920      0.00000
     23      10.3920      0.00000
     24      10.8901      0.00000

 k-point     3 :       0.4000    0.0000    0.0000
  band No.  band energies     occupation 
      1     -23.3707      2.00000
      2     -15.1465      2.00000
      3     -14.2587      2.00000
      4      -8.4385      2.00000
      5      -8.4385      2.00000
      6      -8.1800      2.00000
      7      -1.9055      2.00000
      8      -0.7570      2.00000
      9      -0.7570      2.00000
     10      -0.1086      2.00000
     11       1.2310      2.00000
     12       1.2310      2.00000
     13       1.5434      2.00000
     14       4.3179      2.03387
     15       4.3179      2.03387
     16       4.5159      0.90592
     17       5.1721     -0.00003
     18       6.5407     -0.00000
     19       8.2685     -0.00000
     20       9.7314     -0.00000
     21       9.9313     -0.00000
     22      10.7802      0.00000
     23      10.9881      0.00000
     24      10.9881      0.00000

 k-point     4 :       0.0000    0.2000    0.0000
  band No.  band energies     occupation 
      1     -23.4262      2.00000
      2     -14.7401      2.00000
      3     -14.2818      2.00000
      4      -8.6617      2.00000
      5      -8.5501      2.00000
      6      -8.4849      2.00000
      7      -1.3787      2.00000
      8      -0.7291      2.00000
      9      -0.1466      2.00000
     10       0.2839      2.00000
     11       0.3875      2.00000
     12       0.7569      2.00000
     13       0.9660      2.00000
     14       4.4428      1.49764
     15       4.9236     -0.01166
     16       4.9456     -0.00783
     17       6.4513     -0.00000
     18       6.9026     -0.00000
     19       7.2950     -0.00000
     20       8.1487     -0.00000
     21       8.8402     -0.00000
     22       9.9181     -0.00000
     23      10.0829      0.00000
     24      10.4792      0.00000

 k-point     5 :       0.2000    0.2000    0.0000
  band No.  band energies     occupation 
      1     -23.3977      2.00000
      2     -14.8345      2.00000
      3     -14.2776      2.00000
      4      -8.7593      2.00000
      5      -8.4976      2.00000
      6      -8.3502      2.00000
      7      -1.3625      2.00000
      8      -0.8839      2.00000
      9      -0.3506      2.00000
     10       0.1442      2.00000
     11       0.4804      2.00000
     12       0.8874      2.00000
     13       0.9405      2.00000
     14       4.3121      2.04182
     15       4.8669     -0.02807
     16       4.9891     -0.00326
     17       6.5252     -0.00000
     18       6.9986     -0.00000
     19       7.5068     -0.00000
     20       8.4006     -0.00000
     21       8.9867     -0.00000
     22       9.6454     -0.00000
     23      10.3824      0.00000
     24      11.2103      0.00000

 k-point     6 :       0.4000    0.2000    0.0000
  band No.  band energies     occupation 
      1     -23.3507      2.00000
      2     -14.9985      2.00000
      3     -14.2564      2.00000
      4      -8.7675      2.00000
      5      -8.4091      2.00000
      6      -8.2922      2.00000
      7      -1.5252      2.00000
      8      -0.9861      2.00000
      9      -0.7160      2.00000
     10      -0.0573      2.00000
     11       0.8126      2.00000
     12       0.8518      2.00000
     13       1.3834      2.00000
     14       4.0850      2.01147
     15       4.7819     -0.06459
     16       5.0751     -0.00042
     17       5.2129     -0.00001
     18       7.0800     -0.00000
     19       8.2718     -0.00000
     20       9.2773     -0.00000
     21       9.7775     -0.00000
     22       9.8710     -0.00000
     23      11.0414      0.00000
     24      12.2007      0.00000

 k-point     7 :       0.0000    0.4000    0.0000
  band No.  band energies     occupation 
      1     -23.3824      2.00000
      2     -14.7638      2.00000
      3     -14.1620      2.00000
      4      -8.7813      2.00000
      5      -8.5105      2.00000
      6      -8.4073      2.00000
      7      -1.7398      2.00000
      8      -0.7353      2.00000
      9      -0.1836      2.00000
     10      -0.0139      2.00000
     11       0.0669      2.00000
     12       0.0971      2.00000
     13       0.3511      2.00000
     14       4.5661      0.50747
     15       5.8186     -0.00000
     16       5.8394     -0.00000
     17       5.8500     -0.00000
     18       7.0842     -0.00000
     19       7.6765     -0.00000
     20       8.6690     -0.00000
     21       9.1912     -0.00000
     22       9.6773     -0.00000
     23       9.8946     -0.00000
     24      11.6032      0.00000

 k-point     8 :       0.2000    0.4000    0.0000
  band No.  band energies     occupation 
      1     -23.3580      2.00000
      2     -14.7300      2.00000
      3     -14.2266      2.00000
      4      -8.9526      2.00000
      5      -8.4548      2.00000
      6      -8.4348      2.00000
      7      -1.7407      2.00000
      8      -0.7094      2.00000
      9      -0.2077      2.00000
     10      -0.1916      2.00000
     11       0.1723      2.00000
     12       0.2920      2.00000
     13       0.5311      2.00000
     14       4.2009      2.05357
     15       5.7276     -0.00000
     16       5.8470     -0.00000
     17       6.4345     -0.00000
     18       6.7932     -0.00000
     19       7.9661     -0.00000
     20       8.1529     -0.00000
     21       9.4808     -0.00000
     22       9.8569     -0.00000
     23      10.2284      0.00000
     24      12.0000      0.00000

 k-point     9 :       0.4000    0.4000    0.0000
  band No.  band energies     occupation 
      1     -23.3179      2.00000
      2     -14.6969      2.00000
      3     -14.3075      2.00000
      4      -9.1897      2.00000
      5      -8.5045      2.00000
      6      -8.3607      2.00000
      7      -1.7411      2.00000
      8      -1.0274      2.00000
      9      -0.6178      2.00000
     10       0.0162      2.00000
     11       0.3410      2.00000
     12       0.8153      2.00000
     13       1.2565      2.00000
     14       3.7222      2.00000
     15       5.0474     -0.00085
     16       5.6593     -0.00000
     17       5.8748     -0.00000
     18       7.4289     -0.00000
     19       7.7553     -0.00000
     20       8.8712     -0.00000
     21       9.5700     -0.00000
     22      10.9978      0.00000
     23      11.1089      0.00000
     24      12.8919      0.00000

 k-point    10 :       0.0000    0.2000    0.2000
  band No.  band energies     occupation 
      1     -23.4008      2.00000
      2     -14.6504      2.00000
      3     -14.3169      2.00000
      4      -8.6663      2.00000
      5      -8.5674      2.00000
      6      -8.4345      2.00000
      7      -1.4056      2.00000
      8      -0.8742      2.00000
      9      -0.5821      2.00000
     10      -0.0199      2.00000
     11       0.0425      2.00000
     12       0.1066      2.00000
     13       1.2177      2.00000
     14       4.8768     -0.02447
     15       5.0893     -0.00029
     16       5.2406     -0.00000
     17       6.7935     -0.00000
     18       7.3442     -0.00000
     19       7.8214     -0.00000
     20       8.2322     -0.00000
     21       8.7026     -0.00000
     22       9.8199     -0.00000
     23      10.4500      0.00000
     24      11.4430      0.00000

 k-point    11 :       0.2000    0.2000    0.2000
  band No.  band energies     occupation 
      1     -23.3744      2.00000
      2     -14.7262      2.00000
      3     -14.2885      2.00000
      4      -8.8222      2.00000
      5      -8.6102      2.00000
      6      -8.3080      2.00000
      7      -1.2612      2.00000
      8      -1.0807      2.00000
      9      -0.6904      2.00000
     10       0.0075      2.00000
     11       0.0547      2.00000
     12       0.4276      2.00000
     13       1.1699      2.00000
     14       4.6299      0.13770
     15       5.0016     -0.00249
     16       5.3425     -0.00000
     17       6.8271     -0.00000
     18       7.5879     -0.00000
     19       7.8382     -0.00000
     20       7.9197     -0.00000
     21       9.0095     -0.00000
     22       9.8611     -0.00000
     23      10.5536      0.00000
     24      11.9880      0.00000

 k-point    12 :       0.4000    0.2000    0.2000
  band No.  band energies     occupation 
      1     -23.3309      2.00000
      2     -14.8528      2.00000
      3     -14.2412      2.00000
      4      -8.7918      2.00000
      5      -8.6829      2.00000
      6      -8.4049      2.00000
      7      -1.2263      2.00000
      8      -1.0082      2.00000
      9      -0.7939      2.00000
     10      -0.0173      2.00000
     11       0.1221      2.00000
     12       0.9523      2.00000
     13       0.9630      2.00000
     14       4.4792      1.21468
     15       4.8784     -0.02391
     16       5.2539     -0.00000
     17       5.4651     -0.00000
     18       7.7522     -0.00000
     19       8.6763     -0.00000
     20       8.6992     -0.00000
     21       9.6890     -0.00000
     22      10.3268      0.00000
     23      10.3471      0.00000
     24      13.1972      0.00000

 k-point    13 :       0.0000    0.4000    0.2000
  band No.  band energies     occupation 
      1     -23.3589      2.00000
      2     -14.6273      2.00000
      3     -14.2395      2.00000
      4      -8.7135      2.00000
      5      -8.5380      2.00000
      6      -8.3496      2.00000
      7      -1.9818      2.00000
      8      -1.1342      2.00000
      9      -0.9709      2.00000
     10      -0.3862      2.00000
     11      -0.3690      2.00000
     12      -0.2035      2.00000
     13       1.1615      2.00000
     14       5.0475     -0.00085
     15       5.8649     -0.00000
     16       5.9258     -0.00000
     17       6.7141     -0.00000
     18       7.9619     -0.00000
     19       8.0872     -0.00000
     20       9.0875     -0.00000
     21       9.4173     -0.00000
     22       9.8811     -0.00000
     23      10.3508      0.00000
     24      11.9184      0.00000

 k-point    14 :       0.2000    0.4000    0.2000
  band No.  band energies     occupation 
      1     -23.3360      2.00000
      2     -14.5938      2.00000
      3     -14.2558      2.00000
      4      -8.9091      2.00000
      5      -8.6850      2.00000
      6      -8.3436      2.00000
      7      -1.8734      2.00000
      8      -1.1085      2.00000
      9      -0.8882      2.00000
     10      -0.2989      2.00000
     11      -0.1776      2.00000
     12       0.0472      2.00000
     13       1.1429      2.00000
     14       4.7583     -0.07039
     15       5.7547     -0.00000
     16       5.9897     -0.00000
     17       6.9758     -0.00000
     18       7.2990     -0.00000
     19       8.1533     -0.00000
     20       8.9223     -0.00000
     21       9.4634     -0.00000
     22       9.9780      0.00000
     23      10.6826      0.00000
     24      12.3277      0.00000

 k-point    15 :       0.4000    0.4000    0.2000
  band No.  band energies     occupation 
      1     -23.2985      2.00000
      2     -14.5589      2.00000
      3     -14.2649      2.00000
      4      -9.1433      2.00000
      5      -8.7682      2.00000
      6      -8.5593      2.00000
      7      -1.7531      2.00000
      8      -0.8616      2.00000
      9      -0.6529      2.00000
     10      -0.2748      2.00000
     11      -0.0741      2.00000
     12       0.6006      2.00000
     13       1.1343      2.00000
     14       4.4990      1.04910
     15       5.2093     -0.00001
     16       5.6859     -0.00000
     17       6.0780     -0.00000
     18       8.1687     -0.00000
     19       8.3462     -0.00000
     20       9.2352     -0.00000
     21       9.5099     -0.00000
     22      10.0347      0.00000
     23      11.1197      0.00000
     24      13.2268      0.00000

 k-point    16 :       0.0000    0.4000    0.4000
  band No.  band energies     occupation 
      1     -23.3202      2.00000
      2     -14.4052      2.00000
      3     -14.3533      2.00000
      4      -8.6019      2.00000
      5      -8.5643      2.00000
      6      -8.2518      2.00000
      7      -2.6329      2.00000
      8      -1.8117      2.00000
      9      -1.4393      2.00000
     10      -0.8510      2.00000
     11      -0.6741      2.00000
     12      -0.6457      2.00000
     13       1.6364      2.00000
     14       5.8400     -0.00000
     15       5.9155     -0.00000
     16       6.2840     -0.00000
     17       8.4130     -0.00000
     18       8.7064     -0.00000
     19       9.4443     -0.00000
     20       9.8816     -0.00000
     21      10.0485      0.00000
     22      10.2376      0.00000
     23      11.1426      0.00000
     24      11.8671      0.00000

 k-point    17 :       0.2000    0.4000    0.4000
  band No.  band energies     occupation 
      1     -23.2999      2.00000
      2     -14.3678      2.00000
      3     -14.2998      2.00000
      4      -8.8525      2.00000
      5      -8.7499      2.00000
      6      -8.4802      2.00000
      7      -2.3993      2.00000
      8      -1.4412      2.00000
      9      -1.3991      2.00000
     10      -0.7597      2.00000
     11      -0.4009      2.00000
     12      -0.3075      2.00000
     13       1.6553      2.00000
     14       5.6752     -0.00000
     15       5.8450     -0.00000
     16       6.3609     -0.00000
     17       6.9967     -0.00000
     18       8.8993     -0.00000
     19       9.1517     -0.00000
     20       9.7058     -0.00000
     21       9.7782     -0.00000
     22      10.7091      0.00000
     23      10.9138      0.00000
     24      12.4425      0.00000

 k-point    18 :       0.4000    0.4000    0.4000
  band No.  band energies     occupation 
      1     -23.2667      2.00000
      2     -14.3069      2.00000
      3     -14.2080      2.00000
      4      -9.1131      2.00000
      5      -9.0410      2.00000
      6      -8.9266      2.00000
      7      -2.0018      2.00000
      8      -1.4373      2.00000
      9      -0.6665      2.00000
     10      -0.5182      2.00000
     11       0.0664      2.00000
     12       0.0843      2.00000
     13       1.6408      2.00000
     14       5.1244     -0.00011
     15       5.7328     -0.00000
     16       5.7392     -0.00000
     17       6.4791     -0.00000
     18       8.5915     -0.00000
     19       8.6589     -0.00000
     20       9.7394     -0.00000
     21       9.9931      0.00000
     22      10.6547      0.00000
     23      11.0557      0.00000
     24      13.0770      0.00000


--------------------------------------------------------------------------------------------------------


 soft charge-density along one line, spin component           1
         0         1         2         3         4         5         6         7         8         9
 total charge-density along one line
 
 pseudopotential strength for first ion, spin component:           1
  1.909  -5.638   0.000  -0.000   0.000   0.000  -0.000   0.000
 -5.638   1.084  -0.000   0.000  -0.000   0.000  -0.000   0.000
  0.000  -0.000  -7.512  -0.000  -0.000   4.598  -0.000  -0.000
 -0.000   0.000  -0.000  -7.512  -0.000  -0.000   4.598  -0.000
  0.000  -0.000  -0.000  -0.000  -7.518  -0.000  -0.000   4.591
  0.000   0.000   4.598  -0.000  -0.000   6.558   0.000   0.000
 -0.000  -0.000  -0.000   4.598  -0.000   0.000   6.558   0.000
  0.000   0.000  -0.000  -0.000   4.591   0.000   0.000   6.564
 -0.000   0.000   0.000   0.000   0.000   0.000   0.000   0.000
 -0.000   0.000  -0.000   0.000   0.000  -0.000   0.000   0.000
  0.002  -0.001  -0.000  -0.000  -0.000  -0.000  -0.000   0.000
 -0.000   0.000   0.000   0.000  -0.000   0.000   0.000  -0.000
 -0.003   0.002  -0.000  -0.000   0.000  -0.000  -0.000   0.000
 -0.000   0.000   0.000   0.000   0.000   0.000   0.000   0.000
 -0.000   0.000  -0.000   0.000   0.000  -0.000   0.000   0.000
  0.003  -0.002  -0.000  -0.000  -0.000  -0.000  -0.000   0.000
 -0.000   0.000   0.000   0.000  -0.000   0.000   0.000  -0.000
 -0.004   0.003  -0.000  -0.000   0.000  -0.000  -0.000  -0.000
 total augmentation occupancy for first ion, spin component:           1
  2.003  -0.003   0.000   0.000   0.000   0.000   0.000   0.000   0.000  -0.000   0.011  -0.000  -0.020   0.000   0.000  -0.004
 -0.003   0.401   0.000   0.000   0.000   0.000   0.000   0.000   0.000   0.000  -0.043   0.000   0.075   0.000  -0.000   0.022
  0.000   0.000   2.012   0.000   0.000  -0.004   0.000   0.000   0.000   0.000   0.000   0.000   0.000   0.000   0.000   0.000
  0.000   0.000   0.000   2.012   0.000   0.000  -0.004   0.000   0.000   0.000   0.000   0.000   0.000   0.000   0.000   0.000
  0.000   0.000   0.000   0.000   2.023   0.000  -0.000  -0.013   0.000   0.000   0.000   0.000   0.000   0.000   0.000   0.000
  0.000   0.000  -0.004   0.000   0.000   0.010  -0.000   0.000   0.000   0.000   0.000   0.000   0.000   0.000   0.000   0.000
  0.000   0.000   0.000  -0.004   0.000   0.000   0.010  -0.000   0.000   0.000   0.000   0.000   0.000   0.000   0.000   0.000
  0.000   0.000   0.000   0.000  -0.013   0.000  -0.000   0.011   0.000   0.000   0.000   0.000   0.000   0.000   0.000   0.000
  0.000   0.000   0.000   0.000   0.000   0.000   0.000   0.000   2.903  -0.000   0.000   0.000  -0.000  -1.522  -0.000   0.000
  0.000   0.000   0.000   0.000   0.000   0.000   0.000   0.000   0.000   2.427  -0.000  -0.000   0.000   0.000  -1.214  -0.000
  0.011  -0.043   0.000   0.000   0.000   0.000   0.000   0.000   0.000  -0.000   1.706  -0.000   0.158  -0.000  -0.000  -0.890
 -0.000  -0.000   0.000   0.000   0.000   0.000   0.000   0.000   0.000  -0.000  -0.000   2.903   0.000   0.000  -0.000  -0.000
 -0.020   0.075   0.000   0.000   0.000   0.000   0.000   0.000   0.000  -0.000   0.158  -0.000   1.524   0.000  -0.000  -0.081
  0.000   0.000   0.000   0.000   0.000   0.000   0.000   0.000  -1.522  -0.000  -0.000   0.000   0.000   0.800   0.000  -0.000
  0.000   0.000   0.000   0.000   0.000   0.000   0.000   0.000   0.000  -1.214  -0.000   0.000  -0.000   0.000   0.612   0.000
 -0.004   0.022   0.000   0.000   0.000   0.000   0.000   0.000   0.000   0.000  -0.890   0.000  -0.081  -0.000   0.000   0.465
 -0.000   0.000   0.000   0.000   0.000   0.000   0.000   0.000   0.000   0.000   0.000  -1.522   0.000  -0.000   0.000   0.000
  0.008  -0.039   0.000   0.000   0.000   0.000   0.000   0.000   0.000   0.000  -0.081   0.000  -0.796   0.000  -0.000   0.042


------------------------ aborting loop because EDIFF is reached ----------------------------------------


    CHARGE:  cpu time    0.0568: real time    0.0568
    FORLOC:  cpu time    0.0038: real time    0.0038
    FORNL :  cpu time    0.0995: real time    0.0995
    STRESS:  cpu time    0.5849: real time    0.5847
    FORCOR:  cpu time    0.0338: real time    0.0338
    FORHAR:  cpu time    0.0110: real time    0.0110
    MIXING:  cpu time    0.0010: real time    0.0010
    OFIELD:  cpu time    0.0000: real time    0.0000

  FORCE on cell =-STRESS in cart. coord.  units (eV):
  Direction    XX          YY          ZZ          XY          YZ          ZX
  --------------------------------------------------------------------------------------
  Alpha Z   164.03169   164.03169   164.03169
  Ewald    -565.09448  -446.93586  -446.93586    -0.00000    -0.00000    -0.00000
  Hartree    68.32176   136.85483   136.85483    -0.00000    -0.00000    -0.00000
  E(xc)    -112.49260  -112.86499  -112.86499    -0.00000    -0.00000    -0.00000
  Local      83.32898  -100.55171  -100.55171     0.00000     0.00000    -0.00000
  n-local   -90.21124   -88.41071   -86.44950     0.02173    -0.12044    -0.22917
  augment    10.72693    10.42004    10.42004     0.00000     0.00000     0.00000
  Kinetic   441.02567   429.29000   444.95191    -1.03669     0.00314    -0.90714
  Fock        0.00000     0.00000     0.00000     0.00000     0.00000     0.00000
  -------------------------------------------------------------------------------------
  Total      -0.36328     0.64484     0.64484     0.00000     0.00000     0.00000
  in kB      -8.85602    15.71980    15.71980     0.00000     0.00000     0.00000
  external pressure =        7.53 kB  Pullay stress =        0.00 kB


 VOLUME and BASIS-vectors are now :
 -----------------------------------------------------------------------------
  energy-cutoff  :      500.00
  volume of cell :       65.72
      direct lattice vectors                 reciprocal lattice vectors
     4.035583019  0.000000000  0.000000000     0.247795670  0.000000000  0.000000000
     0.000000000  4.035583019  0.000000000     0.000000000  0.247795670  0.000000000
     0.000000000  0.000000000  4.035583019     0.000000000  0.000000000  0.247795670

  length of vectors
     4.035583019  4.035583019  4.035583019     0.247795670  0.247795670  0.247795670


 FORCES acting on ions
    electron-ion (+dipol)            ewald-force                    non-local-force                 convergence-correction
 -----------------------------------------------------------------------------------------------
   -.105E-15 0.130E-15 0.217E-14   -.213E-14 -.263E-14 -.124E-14   0.000E+00 0.000E+00 0.000E+00   -.243E-15 0.132E-15 -.204E-13
   0.116E-13 0.460E-12 -.107E-12   0.117E-14 0.138E-14 0.336E-14   0.000E+00 0.000E+00 0.000E+00   -.179E-14 -.317E-15 0.117E-13
   0.118E-12 -.149E-14 -.234E-12   0.211E-14 -.481E-14 0.360E-15   0.000E+00 0.000E+00 0.000E+00   0.321E-14 0.230E-14 0.210E-13
   0.118E-12 0.163E-11 -.105E-11   -.970E-16 0.501E-14 -.268E-14   0.000E+00 0.000E+00 0.000E+00   -.473E-14 -.370E-14 -.368E-13
[...]
     14       4.1534      2.05612
     15       5.6418     -0.00000
     16       5.7450     -0.00000
     17       6.4639     -0.00000
     18       6.7638     -0.00000
     19       7.9204     -0.00000
     20       8.1553     -0.00000
     21       9.4213     -0.00000
     22       9.8372     -0.00000
     23      10.2437      0.00000
     24      11.9700      0.00000

 k-point     9 :       0.4000    0.4000    0.0000
  band No.  band energies     occupation 
      1     -23.3099      2.00000
      2     -14.6976      2.00000
      3     -14.3224      2.00000
      4      -9.1611      2.00000
      5      -8.5277      2.00000
      6      -8.3640      2.00000
      7      -1.7325      2.00000
      8      -1.0319      2.00000
      9      -0.6433      2.00000
     10      -0.0110      2.00000
     11       0.2992      2.00000
     12       0.8081      2.00000
     13       1.2563      2.00000
     14       3.6642      2.00000
     15       5.0572     -0.00016
     16       5.5655     -0.00000
     17       5.7734     -0.00000
     18       7.3148     -0.00000
     19       7.8596     -0.00000
     20       8.8763     -0.00000
     21       9.5233     -0.00000
     22      10.9842      0.00000
     23      11.1133      0.00000
     24      12.8926      0.00000

 k-point    10 :       0.0000    0.2000    0.2000
  band No.  band energies     occupation 
      1     -23.3979      2.00000
      2     -14.6505      2.00000
      3     -14.3308      2.00000
      4      -8.6573      2.00000
      5      -8.5620      2.00000
      6      -8.4108      2.00000
      7      -1.4698      2.00000
      8      -0.8764      2.00000
      9      -0.5929      2.00000
     10      -0.0360      2.00000
     11       0.0607      2.00000
     12       0.1279      2.00000
     13       1.1830      2.00000
     14       4.8317     -0.02174
     15       5.0312     -0.00033
     16       5.1498     -0.00001
     17       6.7476     -0.00000
     18       7.3470     -0.00000
     19       7.7221     -0.00000
     20       8.2062     -0.00000
     21       8.6288     -0.00000
     22       9.8644     -0.00000
     23      10.4675      0.00000
     24      11.4156      0.00000

 k-point    11 :       0.2000    0.2000    0.2000
  band No.  band energies     occupation 
      1     -23.3693      2.00000
      2     -14.7263      2.00000
      3     -14.3008      2.00000
      4      -8.8175      2.00000
      5      -8.6034      2.00000
      6      -8.2965      2.00000
      7      -1.3010      2.00000
      8      -1.0912      2.00000
      9      -0.7024      2.00000
     10       0.0071      2.00000
     11       0.0392      2.00000
     12       0.4388      2.00000
     13       1.1356      2.00000
     14       4.5793      0.12691
     15       4.9352     -0.00331
     16       5.2541     -0.00000
     17       6.8258     -0.00000
     18       7.5118     -0.00000
     19       7.8311     -0.00000
     20       7.9080     -0.00000
     21       8.9565     -0.00000
     22       9.8474     -0.00000
     23      10.5782      0.00000
     24      11.9697      0.00000

 k-point    12 :       0.4000    0.2000    0.2000
  band No.  band energies     occupation 
      1     -23.3221      2.00000
      2     -14.8541      2.00000
      3     -14.2508      2.00000
      4      -8.7869      2.00000
      5      -8.6742      2.00000
      6      -8.4184      2.00000
      7      -1.2377      2.00000
      8      -1.0255      2.00000
      9      -0.8108      2.00000
     10      -0.0309      2.00000
     11       0.1096      2.00000
     12       0.9060      2.00000
     13       0.9669      2.00000
     14       4.4253      1.22049
     15       4.7979     -0.03437
     16       5.2398     -0.00000
     17       5.3879     -0.00000
     18       7.6072     -0.00000
     19       8.7260     -0.00000
     20       8.7591     -0.00000
     21       9.6684     -0.00000
     22      10.3130      0.00000
     23      10.3535      0.00000
     24      13.1737      0.00000

 k-point    13 :       0.0000    0.4000    0.2000
  band No.  band energies     occupation 
      1     -23.3575      2.00000
      2     -14.6382      2.00000
      3     -14.2586      2.00000
      4      -8.6781      2.00000
      5      -8.5334      2.00000
      6      -8.3291      2.00000
      7      -2.0089      2.00000
      8      -1.1400      2.00000
      9      -0.9722      2.00000
     10      -0.4037      2.00000
     11      -0.3570      2.00000
     12      -0.1768      2.00000
     13       1.1226      2.00000
     14       4.9924     -0.00089
     15       5.7798     -0.00000
     16       5.8224     -0.00000
     17       6.7103     -0.00000
     18       7.8603     -0.00000
     19       8.0781     -0.00000
     20       9.0127     -0.00000
     21       9.3261     -0.00000
     22       9.9506      0.00000
     23      10.3904      0.00000
     24      11.8777      0.00000

 k-point    14 :       0.2000    0.4000    0.2000
  band No.  band energies     occupation 
      1     -23.3326      2.00000
      2     -14.6025      2.00000
      3     -14.2740      2.00000
      4      -8.8828      2.00000
      5      -8.6793      2.00000
      6      -8.3373      2.00000
      7      -1.8832      2.00000
      8      -1.1048      2.00000
      9      -0.9040      2.00000
     10      -0.3236      2.00000
     11      -0.1620      2.00000
     12       0.0673      2.00000
     13       1.1043      2.00000
     14       4.6993     -0.07086
     15       5.6662     -0.00000
     16       5.8879     -0.00000
     17       6.9851     -0.00000
     18       7.3200     -0.00000
     19       8.0631     -0.00000
     20       8.8751     -0.00000
     21       9.4032     -0.00000
     22       9.9696      0.00000
     23      10.6925      0.00000
     24      12.2888      0.00000

 k-point    15 :       0.4000    0.4000    0.2000
  band No.  band energies     occupation 
      1     -23.2915      2.00000
      2     -14.5656      2.00000
      3     -14.2806      2.00000
      4      -9.1183      2.00000
      5      -8.7833      2.00000
      6      -8.5624      2.00000
      7      -1.7477      2.00000
      8      -0.8603      2.00000
      9      -0.6688      2.00000
     10      -0.2708      2.00000
     11      -0.0867      2.00000
     12       0.6101      2.00000
     13       1.0974      2.00000
     14       4.4375      1.11844
     15       5.2019     -0.00000
     16       5.5926     -0.00000
     17       5.9763     -0.00000
     18       8.0587     -0.00000
     19       8.4158     -0.00000
     20       9.1977     -0.00000
     21       9.4785     -0.00000
     22      10.0470      0.00000
     23      11.0968      0.00000
     24      13.2524      0.00000

 k-point    16 :       0.0000    0.4000    0.4000
  band No.  band energies     occupation 
      1     -23.3203      2.00000
      2     -14.4272      2.00000
      3     -14.3775      2.00000
      4      -8.5703      2.00000
      5      -8.5338      2.00000
      6      -8.2351      2.00000
      7      -2.6649      2.00000
      8      -1.7839      2.00000
      9      -1.4231      2.00000
     10      -0.8696      2.00000
     11      -0.6384      2.00000
     12      -0.6103      2.00000
     13       1.5738      2.00000
     14       5.7571     -0.00000
     15       5.8272     -0.00000
     16       6.1717     -0.00000
     17       8.3858     -0.00000
     18       8.6489     -0.00000
     19       9.3198     -0.00000
     20       9.8034     -0.00000
     21       9.9547      0.00000
     22      10.3260      0.00000
     23      11.1927      0.00000
     24      11.9218      0.00000

 k-point    17 :       0.2000    0.4000    0.4000
  band No.  band energies     occupation 
      1     -23.2980      2.00000
      2     -14.3878      2.00000
      3     -14.3218      2.00000
      4      -8.8338      2.00000
      5      -8.7229      2.00000
      6      -8.4751      2.00000
      7      -2.4202      2.00000
      8      -1.4244      2.00000
      9      -1.3629      2.00000
     10      -0.7709      2.00000
     11      -0.3747      2.00000
     12      -0.2766      2.00000
     13       1.5957      2.00000
     14       5.5935     -0.00000
     15       5.7512     -0.00000
     16       6.2516     -0.00000
     17       7.0079     -0.00000
     18       8.8646     -0.00000
     19       9.1054     -0.00000
     20       9.6437     -0.00000
     21       9.6660     -0.00000
     22      10.6637      0.00000
     23      10.9277      0.00000
     24      12.4274      0.00000

 k-point    18 :       0.4000    0.4000    0.4000
  band No.  band energies     occupation 
      1     -23.2614      2.00000
      2     -14.3236      2.00000
      3     -14.2262      2.00000
      4      -9.1117      2.00000
      5      -9.0201      2.00000
      6      -8.9370      2.00000
      7      -2.0049      2.00000
      8      -1.4195      2.00000
      9      -0.6352      2.00000
     10      -0.4997      2.00000
     11       0.0788      2.00000
     12       0.1041      2.00000
     13       1.5823      2.00000
     14       5.1116     -0.00003
     15       5.6379     -0.00000
     16       5.6471     -0.00000
     17       6.3706     -0.00000
     18       8.5862     -0.00000
     19       8.6531     -0.00000
     20       9.5717     -0.00000
     21       9.9751      0.00000
     22      10.6505      0.00000
     23      11.0208      0.00000
     24      13.1196      0.00000


--------------------------------------------------------------------------------------------------------


 soft charge-density along one line, spin component           1
         0         1         2         3         4         5         6         7         8         9
 total charge-density along one line
 
 pseudopotential strength for first ion, spin component:           1
  1.905  -5.635   0.000  -0.000   0.000   0.000  -0.000  -0.000
 -5.635   1.082  -0.000   0.000   0.000   0.000  -0.000  -0.000
  0.000  -0.000  -7.513  -0.000  -0.000   4.598  -0.000  -0.000
 -0.000   0.000  -0.000  -7.513  -0.000  -0.000   4.598  -0.000
  0.000   0.000  -0.000  -0.000  -7.518  -0.000  -0.000   4.591
  0.000   0.000   4.598  -0.000  -0.000   6.559   0.000   0.000
 -0.000  -0.000  -0.000   4.598  -0.000   0.000   6.559   0.000
 -0.000  -0.000  -0.000  -0.000   4.591   0.000   0.000   6.564
 -0.000   0.000  -0.000  -0.000   0.000  -0.000  -0.000   0.000
 -0.000   0.000  -0.000   0.000  -0.000  -0.000   0.000  -0.000
  0.002  -0.001  -0.000  -0.000   0.000  -0.000  -0.000   0.000
 -0.000   0.000  -0.000  -0.000  -0.000  -0.000  -0.000  -0.000
 -0.003   0.002  -0.000  -0.000  -0.000  -0.000  -0.000   0.000
 -0.000   0.000   0.000  -0.000   0.000  -0.000  -0.000   0.000
 -0.000   0.000  -0.000   0.000  -0.000  -0.000   0.000  -0.000
  0.002  -0.002  -0.000  -0.000   0.000  -0.000  -0.000   0.000
 -0.000   0.000  -0.000  -0.000  -0.000  -0.000   0.000  -0.000
 -0.004   0.003  -0.000  -0.000  -0.000  -0.000  -0.000   0.000
 total augmentation occupancy for first ion, spin component:           1
  2.003  -0.003   0.000   0.000   0.000   0.000   0.000   0.000   0.000   0.000   0.011   0.000  -0.019   0.000   0.000  -0.004
 -0.003   0.402   0.000   0.000   0.000   0.000   0.000   0.000   0.000  -0.000  -0.047   0.000   0.081   0.000  -0.000   0.024
  0.000   0.000   2.012  -0.000   0.000  -0.004   0.000   0.000   0.000   0.000   0.000   0.000   0.000   0.000   0.000   0.000
  0.000   0.000  -0.000   2.012   0.000   0.000  -0.004  -0.000   0.000   0.000   0.000   0.000   0.000   0.000   0.000   0.000
  0.000   0.000   0.000   0.000   2.023   0.000  -0.000  -0.013   0.000   0.000   0.000   0.000   0.000   0.000   0.000   0.000
  0.000   0.000  -0.004   0.000   0.000   0.010   0.000   0.000   0.000   0.000   0.000   0.000   0.000   0.000   0.000   0.000
  0.000   0.000   0.000  -0.004   0.000   0.000   0.010  -0.000   0.000   0.000   0.000   0.000   0.000   0.000   0.000   0.000
  0.000   0.000   0.000  -0.000  -0.013   0.000  -0.000   0.011   0.000   0.000   0.000   0.000   0.000   0.000   0.000   0.000
  0.000   0.000   0.000   0.000   0.000   0.000   0.000   0.000   2.936   0.000   0.000  -0.000   0.000  -1.540  -0.000   0.000
  0.000  -0.000   0.000   0.000   0.000   0.000   0.000   0.000   0.000   2.379   0.000  -0.000   0.000  -0.000  -1.191  -0.000
  0.011  -0.047   0.000   0.000   0.000   0.000   0.000   0.000   0.000   0.000   1.737   0.000   0.192  -0.000   0.000  -0.906
  0.000   0.000   0.000   0.000   0.000   0.000   0.000   0.000  -0.000   0.000   0.000   2.936   0.000   0.000   0.000  -0.000
 -0.019   0.081   0.000   0.000   0.000   0.000   0.000   0.000   0.000   0.000   0.192   0.000   1.516   0.000   0.000  -0.099
  0.000   0.000   0.000   0.000   0.000   0.000   0.000   0.000  -1.540  -0.000  -0.000   0.000  -0.000   0.811   0.000   0.000
  0.000  -0.000   0.000   0.000   0.000   0.000   0.000   0.000  -0.000  -1.191  -0.000   0.000  -0.000   0.000   0.600   0.000
 -0.004   0.024   0.000   0.000   0.000   0.000   0.000   0.000   0.000   0.000  -0.906  -0.000  -0.099   0.000   0.000   0.474
  0.000   0.000   0.000   0.000   0.000   0.000   0.000   0.000   0.000   0.000  -0.000  -1.540  -0.000  -0.000   0.000  -0.000
  0.008  -0.042   0.000   0.000   0.000   0.000   0.000   0.000   0.000   0.000  -0.099  -0.000  -0.792   0.000  -0.000   0.051


------------------------ aborting loop because EDIFF is reached ----------------------------------------


    CHARGE:  cpu time    0.0499: real time    0.0499
    FORLOC:  cpu time    0.0038: real time    0.0038
    FORNL :  cpu time    0.0999: real time    0.0998
    STRESS:  cpu time    0.5845: real time    0.5852
    FORCOR:  cpu time    0.0338: real time    0.0337
    FORHAR:  cpu time    0.0110: real time    0.0110
    MIXING:  cpu time    0.0007: real time    0.0007
    OFIELD:  cpu time    0.0000: real time    0.0000

  FORCE on cell =-STRESS in cart. coord.  units (eV):
  Direction    XX          YY          ZZ          XY          YZ          ZX
  --------------------------------------------------------------------------------------
  Alpha Z   163.74130   163.74130   163.74130
  Ewald    -562.23058  -448.50831  -448.50831    -0.00000     0.00000    -0.00000
  Hartree    70.08954   135.59436   135.59436    -0.00000    -0.00000    -0.00000
  E(xc)    -112.47981  -112.75710  -112.75710     0.00000    -0.00000     0.00000
  Local      79.08452   -97.61173   -97.61173     0.00000    -0.00000    -0.00000
  n-local   -90.15164   -88.52091   -86.71346     0.01743    -0.13965    -0.23397
  augment    10.75799    10.41028    10.41028    -0.00000     0.00000     0.00000
  Kinetic   441.18910   429.05354   444.44384    -1.05043    -0.00415    -0.91523
  Fock        0.00000     0.00000     0.00000     0.00000     0.00000     0.00000
  -------------------------------------------------------------------------------------
  Total       0.00041     0.00030     0.00030     0.00000     0.00000     0.00000
  in kB       0.00986     0.00723     0.00723     0.00000     0.00000     0.00000
  external pressure =        0.01 kB  Pullay stress =        0.00 kB


 VOLUME and BASIS-vectors are now :
 -----------------------------------------------------------------------------
  energy-cutoff  :      500.00
  volume of cell :       65.84
      direct lattice vectors                 reciprocal lattice vectors
     3.998358560 -0.000000000 -0.000000000     0.250102632  0.000000000 -0.000000000
     0.000000000  4.057918512  0.000000000     0.000000000  0.246431760  0.000000000
     0.000000000 -0.000000000  4.057918512     0.000000000 -0.000000000  0.246431760

  length of vectors
     3.998358560  4.057918512  4.057918512     0.250102632  0.246431760  0.246431760


 FORCES acting on ions
    electron-ion (+dipol)            ewald-force                    non-local-force                 convergence-correction
 -----------------------------------------------------------------------------------------------
   0.356E-15 0.228E-15 0.190E-14   0.799E-14 -.326E-14 -.112E-14   0.983E-31 -.382E-31 0.000E+00   0.360E-14 0.137E-14 -.387E-13
   0.105E-13 0.455E-12 -.109E-12   -.158E-14 0.332E-14 0.595E-15   -.462E-27 0.180E-27 0.000E+00   -.106E-14 -.127E-14 0.178E-13
   0.119E-12 -.644E-15 -.229E-12   -.425E-14 -.698E-14 -.536E-15   -.293E-28 0.114E-28 0.000E+00   -.551E-14 0.357E-14 0.450E-13
   0.116E-12 0.162E-11 -.104E-11   -.265E-14 0.601E-14 0.687E-15   -.289E-28 0.112E-28 0.000E+00   -.499E-14 -.249E-14 -.583E-13
   -.215E-15 0.336E-14 0.340E-14   0.747E-16 0.222E-15 0.420E-15   -.439E-32 0.170E-32 0.000E+00   0.509E-15 -.236E-15 0.369E-14
 -----------------------------------------------------------------------------------------------
   0.246E-12 0.208E-11 -.137E-11   -.422E-15 -.681E-15 0.448E-16   -.520E-27 0.202E-27 0.000E+00   -.745E-14 0.945E-15 -.304E-13
 
 
 POSITION                                       TOTAL-FORCE (eV/Angst)
 -----------------------------------------------------------------------------------
     -0.00000      0.00000     -0.00000         0.000000      0.000000     -0.000000
      1.99918      2.02896      2.02896         0.000000     -0.000000     -0.000000
      1.99918     -0.00000      2.02896        -0.000000     -0.000000     -0.000000
      1.99918      2.02896     -0.00000         0.000000      0.000000      0.000000
      0.00000      2.02896      2.02896         0.000000      0.000000     -0.000000
 -----------------------------------------------------------------------------------
    total drift:                                0.000000      0.000000     -0.000000


--------------------------------------------------------------------------------------------------------



  FREE ENERGIE OF THE ION-ELECTRON SYSTEM (eV)
  ---------------------------------------------------
  free  energy   TOTEN  =       -33.69588392 eV

  energy  without entropy=      -33.69166009  energy(sigma->0) =      -33.69447598
 
 d Force = 0.0000000E+00[ 0.000E+00, 0.000E+00]  d Energy =-0.5202082E-08 0.520E-08
 d Force = 0.0000000E+00[ 0.000E+00, 0.000E+00]  d Ewald  =-0.6224254E-02 0.622E-02


--------------------------------------------------------------------------------------------------------


    POTLOK:  cpu time    0.0372: real time    0.0372


--------------------------------------------------------------------------------------------------------


 Quasi-Newton relaxation of ions (Broydens 2nd method)
  g(Force)  = 0.309E-62   g(Stress)= 0.329E-08

 retain information from N=  1 steps
 eigenvalues of (default step * inverse Hessian matrix)
  average eigenvalue of G=   0.1196
 eigenvalue spectrum of G is  0.1196


--------------------------------------------------------------------------------------------------------


  
 reached required accuracy - stopping structural energy minimisation
     LOOP+:  cpu time    1.6901: real time    2.2498
    4ORBIT:  cpu time    0.0000: real time    0.0000

 total amount of memory used by VASP on root node    54170. kBytes
========================================================================

   base      :      30000. kBytes
   nonl-proj :      18221. kBytes
   fftplans  :       1096. kBytes
   grid      :       3221. kBytes
   one-center:         77. kBytes
   wavefun   :       1555. kBytes
 
  
  
 General timing and accounting informations for this job:
 ========================================================
  
                  Total CPU time used (sec):       77.349
                            User time (sec):       76.768
                          System time (sec):        0.581
                         Elapsed time (sec):      111.075
  
                   Maximum memory used (kb):       73008.
                   Average memory used (kb):           0.
  
                          Minor page faults:        37157
                          Major page faults:            0
                 Voluntary context switches:         1643
