<?xml version="1.0" encoding="ISO-8859-1"?>
<modeling>
 <generator>
  <i name="program" type="string">vasp </i>
  <i name="version" type="string">5.4.1  </i>
  <i name="subversion" type="string">05Feb16 (build Nov 07 2016 16:53:41) complex                          parallel </i>
  <i name="platform" type="string">IFC91_ompi </i>
  <i name="date" type="string">2024 10 15 </i>
  <i name="time" type="string">16:03:20 </i>
 </generator>
 <incar>
  <i type="string" name="PREC">accurate</i>
  <i type="int" name="IBRION">     1</i>
  <i name="EDIFF">      0.00000010</i>
  <i name="EDIFFG">     -0.00010000</i>
  <i type="int" name="NSW">   300</i>
  <i type="int" name="ISIF">     3</i>
  <i name="ENCUT">    500.00000000</i>
  <i type="logical" name="LWAVE"> F  </i>
  <v type="int" name="KPOINT_BSE">    -1     0     0     0</v>
  <i type="string" name="GGA"> PE</i>
 </incar>
 <kpoints>
  <generation param="Gamma">
   <v type="int" name="divisions">       5        5        5 </v>
   <v name="usershift">      0.00000000       0.00000000       0.00000000 </v>
   <v name="genvec1">      0.20000000       0.00000000       0.00000000 </v>
   <v name="genvec2">      0.00000000       0.20000000       0.00000000 </v>
   <v name="genvec3">      0.00000000       0.00000000       0.20000000 </v>
   <v name="shift">      0.00000000       0.00000000       0.00000000 </v>
  </generation>
  <varray name="kpointlist" >
   <v>       0.00000000       0.00000000       0.00000000 </v>
   <v>       0.20000000       0.00000000       0.00000000 </v>
   <v>       0.40000000       0.00000000       0.00000000 </v>
   <v>       0.00000000       0.20000000       0.00000000 </v>
   <v>       0.20000000       0.20000000       0.00000000 </v>
   <v>       0.40000000       0.20000000       0.00000000 </v>
   <v>       0.00000000       0.40000000       0.00000000 </v>
   <v>       0.20000000       0.40000000       0.00000000 </v>
   <v>       0.40000000       0.40000000       0.00000000 </v>
   <v>       0.00000000       0.20000000       0.20000000 </v>
   <v>       0.20000000       0.20000000       0.20000000 </v>
   <v>       0.40000000       0.20000000       0.20000000 </v>
   <v>       0.00000000       0.40000000       0.20000000 </v>
   <v>       0.20000000       0.40000000       0.20000000 </v>
   <v>       0.40000000       0.40000000       0.20000000 </v>
   <v>       0.00000000       0.40000000       0.40000000 </v>
   <v>       0.20000000       0.40000000       0.40000000 </v>
   <v>       0.40000000       0.40000000       0.40000000 </v>
  </varray>
  <varray name="weights" >
   <v>       0.00800000 </v>
   <v>       0.01600000 </v>
   <v>       0.01600000 </v>
   <v>       0.03200000 </v>
   <v>       0.06400000 </v>
   <v>       0.06400000 </v>
   <v>       0.03200000 </v>
   <v>       0.06400000 </v>
   <v>       0.06400000 </v>
   <v>       0.03200000 </v>
   <v>       0.06400000 </v>
   <v>       0.06400000 </v>
   <v>       0.06400000 </v>
   <v>       0.12800000 </v>
   <v>       0.12800000 </v>
   <v>       0.03200000 </v>
   <v>       0.06400000 </v>
   <v>       0.06400000 </v>
  </varray>
 </kpoints>
 <parameters>
  <separator name="general" >
   <i type="string" name="SYSTEM">unknown system</i>
   <i type="logical" name="LCOMPAT"> F  </i>
  </separator>
  <separator name="electronic" >
   <i type="string" name="PREC">accura</i>
   <i name="ENMAX">    500.00000000</i>
   <i name="ENAUG">    605.39200000</i>
   <i name="EDIFF">      0.00000010</i>
   <i type="int" name="IALGO">    38</i>
   <i type="int" name="IWAVPR">    11</i>
   <i type="int" name="NBANDS">    24</i>
   <i name="NELECT">     27.00000000</i>
   <i type="int" name="TURBO">     0</i>
   <i type="int" name="IRESTART">     0</i>
   <i type="int" name="NREBOOT">     0</i>
   <i type="int" name="NMIN">     0</i>
   <i name="EREF">      0.00000000</i>
   <separator name="electronic smearing" >
    <i type="int" name="ISMEAR">     1</i>
    <i name="SIGMA">      0.20000000</i>
    <i name="KSPACING">      0.50000000</i>
    <i type="logical" name="KGAMMA"> T  </i>
   </separator>
   <separator name="electronic projectors" >
    <i type="logical" name="LREAL"> F  </i>
    <v name="ROPT">      0.00000000      0.00000000      0.00000000      0.00000000</v>
    <i type="int" name="LMAXPAW">  -100</i>
    <i type="int" name="LMAXMIX">     2</i>
    <i type="logical" name="NLSPLINE"> F  </i>
   </separator>
   <separator name="electronic startup" >
    <i type="int" name="ISTART">     1</i>
    <i type="int" name="ICHARG">     0</i>
    <i type="int" name="INIWAV">     1</i>
   </separator>
   <separator name="electronic spin" >
    <i type="int" name="ISPIN">     1</i>
    <i type="logical" name="LNONCOLLINEAR"> F  </i>
    <v name="MAGMOM">      1.00000000      1.00000000      1.00000000      1.00000000      1.00000000</v>
    <i name="NUPDOWN">     -1.00000000</i>
    <i type="logical" name="LSORBIT"> F  </i>
    <v name="SAXIS">      0.00000000      0.00000000      1.00000000</v>
    <i type="logical" name="LSPIRAL"> F  </i>
    <v name="QSPIRAL">      0.00000000      0.00000000      0.00000000</v>
    <i type="logical" name="LZEROZ"> F  </i>
   </separator>
   <separator name="electronic exchange-correlation" >
    <i type="logical" name="LASPH"> F  </i>
    <i type="logical" name="LMETAGGA"> F  </i>
   </separator>
   <separator name="electronic convergence" >
    <i type="int" name="NELM">    60</i>
    <i type="int" name="NELMDL">     0</i>
    <i type="int" name="NELMIN">     2</i>
    <i name="ENINI">    500.00000000</i>
    <separator name="electronic convergence detail" >
     <i type="logical" name="LDIAG"> T  </i>
     <i type="logical" name="LSUBROT"> F  </i>
     <i name="WEIMIN">      0.00100000</i>
     <i name="EBREAK">      0.00000000</i>
     <i name="DEPER">      0.30000000</i>
     <i type="int" name="NRMM">     4</i>
     <i name="TIME">      0.40000000</i>
    </separator>
   </separator>
   <separator name="electronic mixer" >
    <i name="AMIX">      0.40000000</i>
    <i name="BMIX">      1.00000000</i>
    <i name="AMIN">      0.10000000</i>
    <i name="AMIX_MAG">      1.60000000</i>
    <i name="BMIX_MAG">      1.00000000</i>
    <separator name="electronic mixer details" >
     <i type="int" name="IMIX">     4</i>
     <i type="logical" name="MIXFIRST"> F  </i>
     <i type="int" name="MAXMIX">   -45</i>
     <i name="WC">    100.00000000</i>
     <i type="int" name="INIMIX">     1</i>
     <i type="int" name="MIXPRE">     1</i>
     <i type="int" name="MREMOVE">     5</i>
    </separator>
   </separator>
   <separator name="electronic dipolcorrection" >
    <i type="logical" name="LDIPOL"> F  </i>
    <i type="logical" name="LMONO"> F  </i>
    <i type="int" name="IDIPOL">     0</i>
    <i name="EPSILON">      1.00000000</i>
    <v name="DIPOL">   -100.00000000   -100.00000000   -100.00000000</v>
    <i name="EFIELD">      0.00000000</i>
   </separator>
  </separator>
  <separator name="grids" >
   <i type="int" name="NGX">    30</i>
   <i type="int" name="NGY">    30</i>
   <i type="int" name="NGZ">    30</i>
   <i type="int" name="NGXF">    60</i>
   <i type="int" name="NGYF">    60</i>
   <i type="int" name="NGZF">    60</i>
   <i type="logical" name="ADDGRID"> F  </i>
  </separator>
  <separator name="ionic" >
   <i type="int" name="NSW">   300</i>
   <i type="int" name="IBRION">     1</i>
   <i type="int" name="ISIF">     3</i>
   <i name="PSTRESS">      0.00000000</i>
   <i name="EDIFFG">     -0.00010000</i>
   <i type="int" name="NFREE">     0</i>
   <i name="POTIM">      0.50000000</i>
   <i name="SMASS">     -3.00000000</i>
   <i name="SCALEE">      1.00000000</i>
  </separator>
  <separator name="ionic md" >
   <i name="TEBEG">      0.00010000</i>
   <i name="TEEND">      0.00010000</i>
   <i type="int" name="NBLOCK">     1</i>
   <i type="int" name="KBLOCK">   300</i>
   <i type="int" name="NPACO">   256</i>
   <i name="APACO">     16.00000000</i>
  </separator>
  <separator name="symmetry" >
   <i type="int" name="ISYM">     2</i>
   <i name="SYMPREC">      0.00001000</i>
  </separator>
  <separator name="dos" >
   <i type="logical" name="LORBIT"> F  </i>
   <v name="RWIGS">     -1.00000000     -1.00000000     -1.00000000     -1.00000000</v>
   <i type="int" name="NEDOS">   301</i>
   <i name="EMIN">     10.00000000</i>
   <i name="EMAX">    -10.00000000</i>
   <i name="EFERMI">      0.00000000</i>
  </separator>
  <separator name="writing" >
   <i type="int" name="NWRITE">     2</i>
   <i type="logical" name="LWAVE"> F  </i>
   <i type="logical" name="LCHARG"> T  </i>
   <i type="logical" name="LPARD"> F  </i>
   <i type="logical" name="LVTOT"> F  </i>
   <i type="logical" name="LVHAR"> F  </i>
   <i type="logical" name="LELF"> F  </i>
   <i type="logical" name="LOPTICS"> F  </i>
   <v name="STM">      0.00000000      0.00000000      0.00000000      0.00000000      0.00000000      0.00000000      0.00000000</v>
  </separator>
  <separator name="performance" >
   <i type="int" name="NPAR">     8</i>
   <i type="int" name="NSIM">     4</i>
   <i type="int" name="NBLK">    -1</i>
   <i type="logical" name="LPLANE"> T  </i>
   <i type="logical" name="LSCALAPACK"> T  </i>
   <i type="logical" name="LSCAAWARE"> F  </i>
   <i type="logical" name="LSCALU"> F  </i>
   <i type="logical" name="LASYNC"> F  </i>
   <i type="logical" name="LORBITALREAL"> F  </i>
  </separator>
  <separator name="miscellaneous" >
   <i type="int" name="IDIOT">     3</i>
   <i type="logical" name="LMUSIC"> F  </i>
   <v name="POMASS">    137.32700000     47.88000000     16.00000000      1.00000000</v>
   <v name="DARWINR">      0.00000000      0.00000000      0.00000000      0.00000000</v>
   <v name="DARWINV">      1.00000000      1.00000000      1.00000000      1.00000000</v>
   <i type="logical" name="LCORR"> T  </i>
  </separator>
  <i type="logical" name="GGA_COMPAT"> T  </i>
  <i type="logical" name="LBERRY"> F  </i>
  <i type="int" name="ICORELEVEL">     0</i>
  <i type="logical" name="LDAU"> F  </i>
  <i type="int" name="I_CONSTRAINED_M">     0</i>
  <separator name="electronic exchange-correlation" >
   <i type="string" name="GGA">PE</i>
   <i type="int" name="VOSKOWN">     0</i>
   <i type="logical" name="LHFCALC"> F  </i>
   <i type="string" name="PRECFOCK"></i>
   <i type="logical" name="LSYMGRAD"> F  </i>
   <i type="logical" name="LHFONE"> F  </i>
   <i type="logical" name="LRHFCALC"> F  </i>
   <i type="logical" name="LTHOMAS"> F  </i>
   <i type="logical" name="LMODELHF"> F  </i>
   <i name="ENCUT4O">     -1.00000000</i>
   <i type="int" name="EXXOEP">     0</i>
   <i type="int" name="FOURORBIT">     0</i>
   <i name="AEXX">      0.00000000</i>
   <i name="HFALPHA">      0.00000000</i>
   <i name="MCALPHA">      0.00000000</i>
   <i name="ALDAX">      1.00000000</i>
   <i name="AGGAX">      1.00000000</i>
   <i name="ALDAC">      1.00000000</i>
   <i name="AGGAC">      1.00000000</i>
   <i type="int" name="NKREDX">     1</i>
   <i type="int" name="NKREDY">     1</i>
   <i type="int" name="NKREDZ">     1</i>
   <i type="logical" name="SHIFTRED"> F  </i>
   <i type="logical" name="ODDONLY"> F  </i>
   <i type="logical" name="EVENONLY"> F  </i>
   <i type="int" name="LMAXFOCK">     0</i>
   <i type="int" name="NMAXFOCKAE">     0</i>
   <i type="logical" name="LFOCKAEDFT"> F  </i>
   <i name="HFSCREEN">      0.00000000</i>
   <i name="HFSCREENC">      0.00000000</i>
   <i type="int" name="NBANDSGWLOW">     0</i>
  </separator>
  <separator name="vdW DFT" >
   <i type="logical" name="LUSE_VDW"> F  </i>
   <i name="Zab_VDW">     -0.84910000</i>
   <i name="PARAM1">      0.12340000</i>
   <i name="PARAM2">      1.00000000</i>
   <i name="PARAM3">      0.00000000</i>
  </separator>
  <separator name="model GW" >
   <i type="int" name="MODEL_GW">     0</i>
   <i name="MODEL_EPS0">      7.88678686</i>
   <i name="MODEL_ALPHA">      1.00000000</i>
  </separator>
  <separator name="linear response parameters" >
   <i type="logical" name="LEPSILON"> F  </i>
   <i type="logical" name="LRPA"> F  </i>
   <i type="logical" name="LNABLA"> F  </i>
   <i type="logical" name="LVEL"> F  </i>
   <i type="int" name="KINTER">     0</i>
   <i name="CSHIFT">      0.10000000</i>
   <i name="OMEGAMAX">     -1.00000000</i>
   <i name="DEG_THRESHOLD">      0.00200000</i>
  </separator>
  <separator name="orbital magnetization" >
   <i type="logical" name="NUCIND"> F  </i>
   <v name="MAGPOS">      0.00000000      0.00000000      0.00000000</v>
   <i type="logical" name="LNICSALL"> T  </i>
   <i type="logical" name="ORBITALMAG"> F  </i>
   <i type="logical" name="LMAGBLOCH"> F  </i>
   <i type="logical" name="LCHIMAG"> F  </i>
   <i type="logical" name="LGAUGE"> T  </i>
   <i type="int" name="MAGATOM">     0</i>
   <v name="MAGDIPOL">      0.00000000      0.00000000      0.00000000</v>
   <v name="AVECCONST">      0.00000000      0.00000000      0.00000000</v>
  </separator>
  <separator name="response functions" >
   <i type="logical" name="LADDER"> F  </i>
   <i type="logical" name="LFXC"> F  </i>
   <i type="logical" name="LHARTREE"> T  </i>
   <i type="int" name="IBSE">     0</i>
   <v type="int" name="KPOINT">    -1     0     0     0</v>
   <i type="logical" name="LTCTE"> F  </i>
   <i type="logical" name="LTETE"> F  </i>
   <i type="logical" name="LTRIPLET"> F  </i>
   <i type="logical" name="LFXCEPS"> F  </i>
   <i type="logical" name="LFXHEG"> F  </i>
   <i type="int" name="NATURALO">     0</i>
   <i type="logical" name="L2ORDER"> F  </i>
   <i type="logical" name="LUSEW"> F  </i>
   <i name="ENCUTGW">     -2.00000000</i>
   <i name="ENCUTGWSOFT">     -2.00000000</i>
   <i name="ENCUTLF">     -1.00000000</i>
   <i type="int" name="LMAXMP2">    -1</i>
   <i name="SCISSOR">      0.00000000</i>
   <i type="int" name="NOMEGA">     0</i>
   <i type="int" name="NOMEGAR">     0</i>
   <i type="int" name="NBANDSGW">    -1</i>
   <i type="int" name="NBANDSO">    -1</i>
   <i type="int" name="NBANDSV">    -1</i>
   <i type="int" name="NELM">     1</i>
   <i type="int" name="NELMHF">     1</i>
   <i type="int" name="DIM">     3</i>
   <i type="int" name="ANTIRES">     0</i>
   <i name="OMEGAMAX">    -30.00000000</i>
   <i name="OMEGAMIN">    -30.00000000</i>
   <i name="OMEGATL">   -200.00000000</i>
   <i type="int" name="OMEGAGRID">     0</i>
   <i name="CSHIFT">     -0.10000000</i>
   <i type="logical" name="SELFENERGY"> F  </i>
   <i type="logical" name="LSPECTRAL"> F  </i>
   <i type="logical" name="LSPECTRALGW"> F  </i>
   <i type="logical" name="LSINGLES"> F  </i>
   <i type="logical" name="LFERMIGW"> F  </i>
   <i type="logical" name="ODDONLYGW"> F  </i>
   <i type="logical" name="EVENONLYGW"> F  </i>
   <i type="int" name="NKREDLFX">     1</i>
   <i type="int" name="NKREDLFY">     1</i>
   <i type="int" name="NKREDLFZ">     1</i>
   <i type="int" name="MAXMEM">  1800</i>
   <i type="int" name="TELESCOPE">     0</i>
   <i type="int" name="TAUPAR">     1</i>
   <i type="int" name="OMEGAPAR">    -1</i>
   <i name="LAMBDA">      1.00000000</i>
  </separator>
  <separator name="External order field" >
   <i name="OFIELD_KAPPA">      0.00000000</i>
   <v name="OFIELD_K">      0.00000000      0.00000000      0.00000000</v>
   <i name="OFIELD_Q6_NEAR">      0.00000000</i>
   <i name="OFIELD_Q6_FAR">      0.00000000</i>
   <i name="OFIELD_A">      0.00000000</i>
  </separator>
 </parameters>
 <atominfo>
  <atoms>       5 </atoms>
  <types>       4 </types>
  <array name="atoms" >
   <dimension dim="1">ion</dimension>
   <field type="string">element</field>
   <field type="int">atomtype</field>
   <set>
    <rc><c>Ba</c><c>   1</c></rc>
    <rc><c>Ti</c><c>   2</c></rc>
    <rc><c>O </c><c>   3</c></rc>
    <rc><c>O </c><c>   3</c></rc>
    <rc><c>H </c><c>   4</c></rc>
   </set>
  </array>
  <array name="atomtypes" >
   <dimension dim="1">type</dimension>
   <field type="int">atomspertype</field>
   <field type="string">element</field>
   <field>mass</field>
   <field>valence</field>
   <field type="string">pseudopotential</field>
   <set>
    <rc><c>   1</c><c>Ba</c><c>    137.32700000</c><c>     10.00000000</c><c>  PAW_PBE Ba_sv 06Sep2000               </c></rc>
    <rc><c>   1</c><c>Ti</c><c>     47.88000000</c><c>      4.00000000</c><c>  PAW_PBE Ti 08Apr2002                  </c></rc>
    <rc><c>   2</c><c>O </c><c>     16.00000000</c><c>      6.00000000</c><c>  PAW_PBE O 08Apr2002                   </c></rc>
    <rc><c>   1</c><c>H </c><c>      1.00000000</c><c>      1.00000000</c><c>  PAW_PBE H 15Jun2001                   </c></rc>
   </set>
  </array>
 </atominfo>
 <structure name="initialpos" >
  <crystal>
   <varray name="basis" >
    <v>       4.03558302       0.00000000       0.00000000 </v>
    <v>       0.00000000       4.03558302       0.00000000 </v>
    <v>       0.00000000       0.00000000       4.03558302 </v>
   </varray>
   <i name="volume">     65.72322380 </i>
   <varray name="rec_basis" >
    <v>       0.24779567       0.00000000       0.00000000 </v>
    <v>       0.00000000       0.24779567       0.00000000 </v>
    <v>       0.00000000       0.00000000       0.24779567 </v>
   </varray>
  </crystal>
  <varray name="positions" >
   <v>       0.00000000       0.00000000       0.00000000 </v>
   <v>       0.50000000       0.50000000       0.50000000 </v>
   <v>       0.50000000       0.00000000       0.50000000 </v>
   <v>       0.50000000       0.50000000       0.00000000 </v>
   <v>       0.00000000       0.50000000       0.50000000 </v>
  </varray>
 </structure>
 <calculation>
  <scstep>
   <time name="dav">    0.44    0.44</time>
   <time name="total">    0.54    0.58</time>
   <energy>
    <i name="alphaZ">    164.03168967 </i>
    <i name="ewald">  -1458.96537803 </i>
    <i name="hartreedc">   -342.16273249 </i>
    <i name="XCdc">     49.65134064 </i>
    <i name="pawpsdc">   2185.06107795 </i>
    <i name="pawaedc">  -2148.02833380 </i>
    <i name="eentropy">     -0.00391000 </i>
    <i name="bandstr">   -156.13232268 </i>
    <i name="atom">   1672.84739955 </i>
    <i name="e_fr_energy">    -33.70116919 </i>
    <i name="e_wo_entrp">    -33.69725919 </i>
    <i name="e_0_energy">    -33.69986585 </i>
   </energy>
  </scstep>
  <scstep>
   <time name="dav">    0.50    0.50</time>
   <time name="total">    0.60    0.92</time>
   <energy>
    <i name="e_fr_energy">    -33.69451274 </i>
    <i name="e_wo_entrp">    -33.68972047 </i>
    <i name="e_0_energy">    -33.69291531 </i>
   </energy>
  </scstep>
  <scstep>
   <time name="dav">    0.55    0.55</time>
   <time name="total">    0.65    0.98</time>
   <energy>
    <i name="e_fr_energy">    -33.69188082 </i>
    <i name="e_wo_entrp">    -33.68738934 </i>
    <i name="e_0_energy">    -33.69038366 </i>
   </energy>
  </scstep>
  <scstep>
   <time name="dav">    0.51    0.51</time>
   <time name="total">    0.60    0.77</time>
   <energy>
    <i name="e_fr_energy">    -33.69065447 </i>
    <i name="e_wo_entrp">    -33.68594195 </i>
    <i name="e_0_energy">    -33.68908363 </i>
   </energy>
  </scstep>
  <scstep>
   <time name="dav">    0.48    0.48</time>
   <time name="total">    0.58    0.65</time>
   <energy>
    <i name="e_fr_energy">    -33.69066864 </i>
    <i name="e_wo_entrp">    -33.68597980 </i>
    <i name="e_0_energy">    -33.68910569 </i>
   </energy>
  </scstep>
  <scstep>
   <time name="dav">    0.51    0.51</time>
   <time name="total">    0.61    0.70</time>
   <energy>
    <i name="e_fr_energy">    -33.69067494 </i>
    <i name="e_wo_entrp">    -33.68597933 </i>
    <i name="e_0_energy">    -33.68910974 </i>
   </energy>
  </scstep>
  <scstep>
   <time name="dav">    0.49    0.49</time>
   <time name="total">    0.59    0.64</time>
   <energy>
    <i name="e_fr_energy">    -33.69067632 </i>
    <i name="e_wo_entrp">    -33.68598103 </i>
    <i name="e_0_energy">    -33.68911122 </i>
   </energy>
  </scstep>
  <scstep>
   <time name="dav">    0.49    0.49</time>
   <time name="total">    0.59    0.69</time>
   <energy>
    <i name="e_fr_energy">    -33.69067613 </i>
    <i name="e_wo_entrp">    -33.68598185 </i>
    <i name="e_0_energy">    -33.68911137 </i>
   </energy>
  </scstep>
  <scstep>
   <time name="dav">    0.30    0.30</time>
   <time name="total">    0.34    0.39</time>
   <energy>
    <i name="alphaZ">    164.03168967 </i>
    <i name="ewald">  -1458.96537803 </i>
    <i name="hartreedc">   -342.03182591 </i>
    <i name="XCdc">     49.63737938 </i>
    <i name="pawpsdc">   2192.29354749 </i>
    <i name="pawaedc">  -2155.27717818 </i>
    <i name="eentropy">     -0.00469427 </i>
    <i name="bandstr">   -156.22161578 </i>
    <i name="atom">   1672.84739955 </i>
    <i name="e_fr_energy">    -33.69067609 </i>
    <i name="e_wo_entrp">    -33.68598181 </i>
    <i name="e_0_energy">    -33.68911133 </i>
   </energy>
  </scstep>
  <structure>
   <crystal>
    <varray name="basis" >
     <v>       4.03558302       0.00000000       0.00000000 </v>
     <v>       0.00000000       4.03558302       0.00000000 </v>
     <v>       0.00000000       0.00000000       4.03558302 </v>
    </varray>
    <i name="volume">     65.72322380 </i>
    <varray name="rec_basis" >
     <v>       0.24779567       0.00000000       0.00000000 </v>
     <v>       0.00000000       0.24779567       0.00000000 </v>
     <v>       0.00000000       0.00000000       0.24779567 </v>
    </varray>
   </crystal>
   <varray name="positions" >
    <v>       0.00000000       0.00000000       0.00000000 </v>
    <v>       0.50000000       0.50000000       0.50000000 </v>
    <v>       0.50000000       0.00000000       0.50000000 </v>
    <v>       0.50000000       0.50000000       0.00000000 </v>
    <v>       0.00000000       0.50000000       0.50000000 </v>
   </varray>
  </structure>
  <varray name="forces" >
   <v>       0.00000000       0.00000000       0.00000000 </v>
   <v>       0.00000000       0.00000000       0.00000000 </v>
   <v>       0.00000000       0.00000000       0.00000000 </v>
   <v>       0.00000000       0.00000000       0.00000000 </v>
   <v>       0.00000000       0.00000000       0.00000000 </v>
  </varray>
  <varray name="stress" >
   <v>      -8.85601967       0.00000000       0.00000000 </v>
   <v>       0.00000000      15.71979535      -0.00000000 </v>
   <v>       0.00000000       0.00000000      15.71979535 </v>
  </varray>
  <energy>
   <i name="e_fr_energy">    -33.69067609 </i>
   <i name="e_wo_entrp">    -33.68911133 </i>
   <i name="e_0_energy">     -0.00469427 </i>
  </energy>
  <time name="totalsc">    6.27    8.21</time>
 </calculation>
 <calculation>
  <scstep>
   <time name="dav">    0.45    0.45</time>
   <time name="total">    0.55    0.60</time>
   <energy>
    <i name="alphaZ">    162.57930283 </i>
    <i name="ewald">  -1455.40013854 </i>
    <i name="hartreedc">   -340.57544440 </i>
    <i name="XCdc">     49.38334498 </i>
    <i name="pawpsdc">   2192.33920690 </i>
    <i name="pawaedc">  -2155.32290196 </i>
    <i name="eentropy">     -0.00467872 </i>
    <i name="bandstr">   -159.55724001 </i>
    <i name="atom">   1672.84739955 </i>
    <i name="e_fr_energy">    -33.71114937 </i>
    <i name="e_wo_entrp">    -33.70647065 </i>
    <i name="e_0_energy">    -33.70958980 </i>
   </energy>
  </scstep>
  <scstep>
   <time name="dav">    0.57    0.57</time>
   <time name="total">    0.66    0.71</time>
   <energy>
    <i name="e_fr_energy">    -33.70075699 </i>
    <i name="e_wo_entrp">    -33.69692770 </i>
    <i name="e_0_energy">    -33.69948056 </i>
   </energy>
  </scstep>
  <scstep>
   <time name="dav">    0.53    0.53</time>
   <time name="total">    0.63    0.73</time>
   <energy>
    <i name="e_fr_energy">    -33.69576840 </i>
    <i name="e_wo_entrp">    -33.69137739 </i>
    <i name="e_0_energy">    -33.69430473 </i>
   </energy>
  </scstep>
  <scstep>
   <time name="dav">    0.54    0.54</time>
   <time name="total">    0.64    0.70</time>
   <energy>
    <i name="e_fr_energy">    -33.69444501 </i>
    <i name="e_wo_entrp">    -33.69018979 </i>
    <i name="e_0_energy">    -33.69302660 </i>
   </energy>
  </scstep>
  <scstep>
   <time name="dav">    0.56    0.56</time>
   <time name="total">    0.66    0.77</time>
   <energy>
    <i name="e_fr_energy">    -33.69447372 </i>
    <i name="e_wo_entrp">    -33.69022257 </i>
    <i name="e_0_energy">    -33.69305667 </i>
   </energy>
  </scstep>
  <scstep>
   <time name="dav">    0.48    0.48</time>
   <time name="total">    0.58    1.13</time>
   <energy>
    <i name="e_fr_energy">    -33.69447340 </i>
    <i name="e_wo_entrp">    -33.69022388 </i>
    <i name="e_0_energy">    -33.69305689 </i>
   </energy>
  </scstep>
  <scstep>
   <time name="dav">    0.56    0.56</time>
   <time name="total">    0.66    1.04</time>
   <energy>
    <i name="e_fr_energy">    -33.69447141 </i>
    <i name="e_wo_entrp">    -33.69022418 </i>
    <i name="e_0_energy">    -33.69305566 </i>
   </energy>
  </scstep>
  <scstep>
   <time name="dav">    0.48    0.48</time>
   <time name="total">    0.58    0.76</time>
   <energy>
    <i name="e_fr_energy">    -33.69447178 </i>
    <i name="e_wo_entrp">    -33.69022403 </i>
    <i name="e_0_energy">    -33.69305586 </i>
   </energy>
  </scstep>
  <scstep>
   <time name="dav">    0.35    0.35</time>
   <time name="total">    0.39    0.79</time>
   <energy>
    <i name="alphaZ">    162.57930283 </i>
    <i name="ewald">  -1455.40013854 </i>
    <i name="hartreedc">   -342.89372675 </i>
    <i name="XCdc">     49.54093349 </i>
    <i name="pawpsdc">   2161.39461967 </i>
    <i name="pawaedc">  -2124.33869656 </i>
    <i name="eentropy">     -0.00424754 </i>
    <i name="bandstr">   -157.41991788 </i>
    <i name="atom">   1672.84739955 </i>
    <i name="e_fr_energy">    -33.69447173 </i>
    <i name="e_wo_entrp">    -33.69022419 </i>
    <i name="e_0_energy">    -33.69305588 </i>
   </energy>
  </scstep>
  <structure>
   <crystal>
    <varray name="basis" >
     <v>       4.02143765       0.00000000       0.00000000 </v>
     <v>       0.00000000       4.06069163      -0.00000000 </v>
     <v>       0.00000000       0.00000000       4.06069163 </v>
    </varray>
    <i name="volume">     66.31035601 </i>
    <varray name="rec_basis" >
     <v>       0.24866729      -0.00000000      -0.00000000 </v>
     <v>       0.00000000       0.24626347      -0.00000000 </v>
     <v>       0.00000000       0.00000000       0.24626347 </v>
    </varray>
   </crystal>
   <varray name="positions" >
    <v>       0.00000000       0.00000000       0.00000000 </v>
    <v>       0.50000000       0.50000000       0.50000000 </v>
    <v>       0.50000000       0.00000000       0.50000000 </v>
    <v>       0.50000000       0.50000000       0.00000000 </v>
    <v>       0.00000000       0.50000000       0.50000000 </v>
   </varray>
  </structure>
  <varray name="forces" >
   <v>      -0.00000000      -0.00000000       0.00000000 </v>
   <v>       0.00000000       0.00000000       0.00000000 </v>
   <v>       0.00000000       0.00000000       0.00000000 </v>
   <v>      -0.00000000      -0.00000000       0.00000000 </v>
   <v>      -0.00000000      -0.00000000       0.00000000 </v>
  </varray>
  <varray name="stress" >
   <v>     -10.30835156       0.00000000       0.00000000 </v>
   <v>       0.00000000      -5.95918204      -0.00000000 </v>
   <v>      -0.00000000       0.00000000      -5.95918204 </v>
  </varray>
  <energy>
   <i name="e_fr_energy">    -33.69447173 </i>
   <i name="e_wo_entrp">    -33.69305588 </i>
   <i name="e_0_energy">     -0.00424754 </i>
  </energy>
  <time name="totalsc">    6.25    9.03</time>
 </calculation>
 <calculation>
  <scstep>
   <time name="dav">    0.49    0.49</time>
   <time name="total">    0.58    0.63</time>
   <energy>
    <i name="alphaZ">    163.60288504 </i>
    <i name="ewald">  -1458.54235663 </i>
    <i name="hartreedc">   -343.55706998 </i>
    <i name="XCdc">     49.72130382 </i>
    <i name="pawpsdc">   2161.39937428 </i>
    <i name="pawaedc">  -2124.34349071 </i>
    <i name="eentropy">     -0.00441967 </i>
    <i name="bandstr">   -154.82564571 </i>
    <i name="atom">   1672.84739955 </i>
    <i name="e_fr_energy">    -33.70202002 </i>
    <i name="e_wo_entrp">    -33.69760034 </i>
    <i name="e_0_energy">    -33.70054679 </i>
   </energy>
  </scstep>
  <scstep>
   <time name="dav">    0.56    0.56</time>
   <time name="total">    0.66    0.84</time>
   <energy>
    <i name="e_fr_energy">    -33.69746419 </i>
    <i name="e_wo_entrp">    -33.69284581 </i>
    <i name="e_0_energy">    -33.69592473 </i>
   </energy>
  </scstep>
  <scstep>
   <time name="dav">    0.53    0.53</time>
   <time name="total">    0.62    0.72</time>
   <energy>
    <i name="e_fr_energy">    -33.69584031 </i>
    <i name="e_wo_entrp">    -33.69154279 </i>
    <i name="e_0_energy">    -33.69440780 </i>
   </energy>
  </scstep>
  <scstep>
   <time name="dav">    0.57    0.57</time>
   <time name="total">    0.66    0.76</time>
   <energy>
    <i name="e_fr_energy">    -33.69557875 </i>
    <i name="e_wo_entrp">    -33.69122866 </i>
    <i name="e_0_energy">    -33.69412872 </i>
   </energy>
  </scstep>
  <scstep>
   <time name="dav">    0.60    0.60</time>
   <time name="total">    0.70    1.03</time>
   <energy>
    <i name="e_fr_energy">    -33.69557657 </i>
    <i name="e_wo_entrp">    -33.69123339 </i>
    <i name="e_0_energy">    -33.69412884 </i>
   </energy>
  </scstep>
  <scstep>
   <time name="dav">    0.56    0.56</time>
   <time name="total">    0.65    0.71</time>
   <energy>
    <i name="e_fr_energy">    -33.69558907 </i>
    <i name="e_wo_entrp">    -33.69124288 </i>
    <i name="e_0_energy">    -33.69414034 </i>
   </energy>
  </scstep>
  <scstep>
   <time name="dav">    0.55    0.55</time>
   <time name="total">    0.64    0.75</time>
   <energy>
    <i name="e_fr_energy">    -33.69559063 </i>
    <i name="e_wo_entrp">    -33.69124749 </i>
    <i name="e_0_energy">    -33.69414292 </i>
   </energy>
  </scstep>
  <scstep>
   <time name="dav">    0.50    0.50</time>
   <time name="total">    0.59    0.74</time>
   <energy>
    <i name="e_fr_energy">    -33.69559096 </i>
    <i name="e_wo_entrp">    -33.69124835 </i>
    <i name="e_0_energy">    -33.69414343 </i>
   </energy>
  </scstep>
  <scstep>
   <time name="dav">    0.31    0.31</time>
   <time name="total">    0.41    0.61</time>
   <energy>
    <i name="e_fr_energy">    -33.69559079 </i>
    <i name="e_wo_entrp">    -33.69124808 </i>
    <i name="e_0_energy">    -33.69414322 </i>
   </energy>
  </scstep>
  <scstep>
   <time name="dav">    0.30    0.30</time>
   <time name="total">    0.40    0.44</time>
   <energy>
    <i name="e_fr_energy">    -33.69559065 </i>
    <i name="e_wo_entrp">    -33.69124777 </i>
    <i name="e_0_energy">    -33.69414302 </i>
   </energy>
  </scstep>
  <scstep>
   <time name="dav">    0.29    0.29</time>
   <time name="total">    0.33    0.43</time>
   <energy>
    <i name="alphaZ">    163.60288504 </i>
    <i name="ewald">  -1458.54235663 </i>
    <i name="hartreedc">   -341.70143768 </i>
    <i name="XCdc">     49.60148811 </i>
    <i name="pawpsdc">   2178.70271445 </i>
    <i name="pawaedc">  -2141.66303106 </i>
    <i name="eentropy">     -0.00434291 </i>
    <i name="bandstr">   -156.53890951 </i>
    <i name="atom">   1672.84739955 </i>
    <i name="e_fr_energy">    -33.69559064 </i>
    <i name="e_wo_entrp">    -33.69124773 </i>
    <i name="e_0_energy">    -33.69414300 </i>
   </energy>
  </scstep>
  <structure>
   <crystal>
    <varray name="basis" >
     <v>       4.00974534       0.00000000       0.00000000 </v>
     <v>       0.00000000       4.05386641      -0.00000000 </v>
     <v>       0.00000000       0.00000000       4.05386641 </v>
    </varray>
    <i name="volume">     65.89548496 </i>
    <varray name="rec_basis" >
     <v>       0.24939240      -0.00000000      -0.00000000 </v>
     <v>       0.00000000       0.24667808      -0.00000000 </v>
     <v>       0.00000000       0.00000000       0.24667808 </v>
    </varray>
   </crystal>
   <varray name="positions" >
    <v>      -0.00000000      -0.00000000      -0.00000000 </v>
    <v>       0.50000000       0.50000000       0.50000000 </v>
    <v>       0.50000000       0.00000000       0.50000000 </v>
    <v>       0.50000000       0.50000000      -0.00000000 </v>
    <v>      -0.00000000       0.50000000       0.50000000 </v>
   </varray>
  </structure>
  <varray name="forces" >
   <v>      -0.00000000      -0.00000000       0.00000000 </v>
   <v>       0.00000000       0.00000000       0.00000000 </v>
   <v>       0.00000000       0.00000000       0.00000000 </v>
   <v>      -0.00000000      -0.00000000       0.00000000 </v>
   <v>      -0.00000000      -0.00000000       0.00000000 </v>
  </varray>
  <varray name="stress" >
   <v>      -3.57332632       0.00000000      -0.00000000 </v>
   <v>       0.00000000       2.08673038       0.00000000 </v>
   <v>       0.00000000      -0.00000000       2.08673038 </v>
  </varray>
  <energy>
   <i name="e_fr_energy">    -33.69559064 </i>
   <i name="e_wo_entrp">    -33.69414300 </i>
   <i name="e_0_energy">     -0.00434291 </i>
  </energy>
  <time name="totalsc">    7.15    9.09</time>
 </calculation>
 <calculation>
  <scstep>
   <time name="dav">    0.43    0.43</time>
   <time name="total">    0.53    0.72</time>
   <energy>
    <i name="alphaZ">    163.75197866 </i>
    <i name="ewald">  -1459.27752690 </i>
    <i name="hartreedc">   -341.63546031 </i>
    <i name="XCdc">     49.62795071 </i>
    <i name="pawpsdc">   2178.70007766 </i>
    <i name="pawaedc">  -2141.66041058 </i>
    <i name="eentropy">     -0.00445061 </i>
    <i name="bandstr">   -156.04634515 </i>
    <i name="atom">   1672.84739955 </i>
    <i name="e_fr_energy">    -33.69678696 </i>
    <i name="e_wo_entrp">    -33.69233636 </i>
    <i name="e_0_energy">    -33.69530343 </i>
   </energy>
  </scstep>
  <scstep>
   <time name="dav">    0.50    0.50</time>
   <time name="total">    0.59    0.77</time>
   <energy>
    <i name="e_fr_energy">    -33.69612191 </i>
    <i name="e_wo_entrp">    -33.69183409 </i>
    <i name="e_0_energy">    -33.69469264 </i>
   </energy>
  </scstep>
  <scstep>
   <time name="dav">    0.51    0.51</time>
   <time name="total">    0.60    0.94</time>
   <energy>
    <i name="e_fr_energy">    -33.69590385 </i>
    <i name="e_wo_entrp">    -33.69166374 </i>
    <i name="e_0_energy">    -33.69449048 </i>
   </energy>
  </scstep>
  <scstep>
   <time name="dav">    0.56    0.56</time>
   <time name="total">    0.65    0.72</time>
   <energy>
    <i name="e_fr_energy">    -33.69588505 </i>
    <i name="e_wo_entrp">    -33.69166419 </i>
    <i name="e_0_energy">    -33.69447810 </i>
   </energy>
  </scstep>
  <scstep>
   <time name="dav">    0.53    0.53</time>
   <time name="total">    0.62    0.92</time>
   <energy>
    <i name="e_fr_energy">    -33.69588312 </i>
    <i name="e_wo_entrp">    -33.69165350 </i>
    <i name="e_0_energy">    -33.69447325 </i>
   </energy>
  </scstep>
  <scstep>
   <time name="dav">    0.49    0.49</time>
   <time name="total">    0.58    0.66</time>
   <energy>
    <i name="e_fr_energy">    -33.69588386 </i>
    <i name="e_wo_entrp">    -33.69165878 </i>
    <i name="e_0_energy">    -33.69447550 </i>
   </energy>
  </scstep>
  <scstep>
   <time name="dav">    0.48    0.48</time>
   <time name="total">    0.57    0.65</time>
   <energy>
    <i name="e_fr_energy">    -33.69588402 </i>
    <i name="e_wo_entrp">    -33.69165807 </i>
    <i name="e_0_energy">    -33.69447537 </i>
   </energy>
  </scstep>
  <scstep>
   <time name="dav">    0.30    0.30</time>
   <time name="total">    0.33    0.80</time>
   <energy>
    <i name="alphaZ">    163.75197866 </i>
    <i name="ewald">  -1459.27752690 </i>
    <i name="hartreedc">   -341.26888141 </i>
    <i name="XCdc">     49.60702873 </i>
    <i name="pawpsdc">   2179.34267114 </i>
    <i name="pawaedc">  -2142.30026822 </i>
    <i name="eentropy">     -0.00422592 </i>
    <i name="bandstr">   -156.39405959 </i>
    <i name="atom">   1672.84739955 </i>
    <i name="e_fr_energy">    -33.69588396 </i>
    <i name="e_wo_entrp">    -33.69165804 </i>
    <i name="e_0_energy">    -33.69447532 </i>
   </energy>
  </scstep>
  <structure>
   <crystal>
    <varray name="basis" >
     <v>       3.99829094       0.00000000      -0.00000000 </v>
     <v>       0.00000000       4.05782051      -0.00000000 </v>
     <v>       0.00000000       0.00000000       4.05782051 </v>
    </varray>
    <i name="volume">     65.83548814 </i>
    <varray name="rec_basis" >
     <v>       0.25010686      -0.00000000      -0.00000000 </v>
     <v>      -0.00000000       0.24643771      -0.00000000 </v>
     <v>       0.00000000       0.00000000       0.24643771 </v>
    </varray>
   </crystal>
   <varray name="positions" >
    <v>      -0.00000000      -0.00000000      -0.00000000 </v>
    <v>       0.50000000       0.50000000       0.50000000 </v>
    <v>       0.50000000       0.00000000       0.50000000 </v>
    <v>       0.50000000       0.50000000      -0.00000000 </v>
    <v>      -0.00000000       0.50000000       0.50000000 </v>
   </varray>
  </structure>
  <varray name="forces" >
   <v>      -0.00000000      -0.00000000       0.00000000 </v>
   <v>       0.00000000       0.00000000       0.00000000 </v>
   <v>       0.00000000       0.00000000       0.00000000 </v>
   <v>      -0.00000000      -0.00000000       0.00000000 </v>
   <v>      -0.00000000      -0.00000000       0.00000000 </v>
  </varray>
  <varray name="stress" >
   <v>       0.05336753       0.00000000       0.00000000 </v>
   <v>       0.00000000       0.09627518       0.00000000 </v>
   <v>       0.00000000       0.00000000       0.09627518 </v>
  </varray>
  <energy>
   <i name="e_fr_energy">    -33.69588396 </i>
   <i name="e_wo_entrp">    -33.69447532 </i>
   <i name="e_0_energy">     -0.00422592 </i>
  </energy>
  <time name="totalsc">    5.38    7.95</time>
 </calculation>
 <calculation>
  <scstep>
   <time name="dav">    0.50    0.50</time>
   <time name="total">    0.59    0.63</time>
   <energy>
    <i name="alphaZ">    163.74186368 </i>
    <i name="ewald">  -1459.24802247 </i>
    <i name="hartreedc">   -341.26149113 </i>
    <i name="XCdc">     49.60524963 </i>
    <i name="pawpsdc">   2179.36065127 </i>
    <i name="pawaedc">  -2142.31826865 </i>
    <i name="eentropy">     -0.00422468 </i>
    <i name="bandstr">   -156.41904186 </i>
    <i name="atom">   1672.84739955 </i>
    <i name="e_fr_energy">    -33.69588466 </i>
    <i name="e_wo_entrp">    -33.69165998 </i>
    <i name="e_0_energy">    -33.69447643 </i>
   </energy>
  </scstep>
  <scstep>
   <time name="dav">    0.57    0.57</time>
   <time name="total">    0.66    0.70</time>
   <energy>
    <i name="e_fr_energy">    -33.69588422 </i>
    <i name="e_wo_entrp">    -33.69166250 </i>
    <i name="e_0_energy">    -33.69447698 </i>
   </energy>
  </scstep>
  <scstep>
   <time name="dav">    0.50    0.50</time>
   <time name="total">    0.59    0.68</time>
   <energy>
    <i name="e_fr_energy">    -33.69588406 </i>
    <i name="e_wo_entrp">    -33.69165912 </i>
    <i name="e_0_energy">    -33.69447574 </i>
   </energy>
  </scstep>
  <scstep>
   <time name="dav">    0.35    0.35</time>
   <time name="total">    0.38    0.47</time>
   <energy>
    <i name="alphaZ">    163.74186368 </i>
    <i name="ewald">  -1459.24802247 </i>
    <i name="hartreedc">   -341.27864348 </i>
    <i name="XCdc">     49.60634135 </i>
    <i name="pawpsdc">   2179.19404395 </i>
    <i name="pawaedc">  -2142.15134141 </i>
    <i name="eentropy">     -0.00422438 </i>
    <i name="bandstr">   -156.40330077 </i>
    <i name="atom">   1672.84739955 </i>
    <i name="e_fr_energy">    -33.69588400 </i>
    <i name="e_wo_entrp">    -33.69165961 </i>
    <i name="e_0_energy">    -33.69447587 </i>
   </energy>
  </scstep>
  <structure>
   <crystal>
    <varray name="basis" >
     <v>       3.99835419       0.00000000      -0.00000000 </v>
     <v>      -0.00000000       4.05791375      -0.00000000 </v>
     <v>       0.00000000       0.00000000       4.05791375 </v>
    </varray>
    <i name="volume">     65.83955506 </i>
    <varray name="rec_basis" >
     <v>       0.25010291       0.00000000      -0.00000000 </v>
     <v>      -0.00000000       0.24643205      -0.00000000 </v>
     <v>       0.00000000       0.00000000       0.24643205 </v>
    </varray>
   </crystal>
   <varray name="positions" >
    <v>      -0.00000000      -0.00000000      -0.00000000 </v>
    <v>       0.50000000       0.50000000       0.50000000 </v>
    <v>       0.50000000       0.00000000       0.50000000 </v>
    <v>       0.50000000       0.50000000      -0.00000000 </v>
    <v>      -0.00000000       0.50000000       0.50000000 </v>
   </varray>
  </structure>
  <varray name="forces" >
   <v>      -0.00000000      -0.00000000       0.00000000 </v>
   <v>       0.00000000       0.00000000       0.00000000 </v>
   <v>       0.00000000       0.00000000       0.00000000 </v>
   <v>      -0.00000000      -0.00000000       0.00000000 </v>
   <v>      -0.00000000      -0.00000000       0.00000000 </v>
  </varray>
  <varray name="stress" >
   <v>       0.01996742       0.00000000       0.00000000 </v>
   <v>       0.00000000       0.03346596       0.00000000 </v>
   <v>      -0.00000000       0.00000000       0.03346596 </v>
  </varray>
  <energy>
   <i name="e_fr_energy">    -33.69588400 </i>
   <i name="e_wo_entrp">    -33.69447587 </i>
   <i name="e_0_energy">     -0.00422438 </i>
  </energy>
  <time name="totalsc">    3.13    4.30</time>
 </calculation>
 <calculation>
  <scstep>
   <time name="dav">    0.47    0.47</time>
   <time name="total">    0.56    0.57</time>
   <energy>
    <i name="alphaZ">    163.73625645 </i>
    <i name="ewald">  -1459.23152796 </i>
    <i name="hartreedc">   -341.27559824 </i>
    <i name="XCdc">     49.60542167 </i>
    <i name="pawpsdc">   2179.17460544 </i>
    <i name="pawaedc">  -2142.13189735 </i>
    <i name="eentropy">     -0.00422365 </i>
    <i name="bandstr">   -156.41632002 </i>
    <i name="atom">   1672.84739955 </i>
    <i name="e_fr_energy">    -33.69588411 </i>
    <i name="e_wo_entrp">    -33.69166046 </i>
    <i name="e_0_energy">    -33.69447623 </i>
   </energy>
  </scstep>
  <scstep>
   <time name="dav">    0.55    0.55</time>
   <time name="total">    0.64    0.72</time>
   <energy>
    <i name="e_fr_energy">    -33.69588395 </i>
    <i name="e_wo_entrp">    -33.69166182 </i>
    <i name="e_0_energy">    -33.69447657 </i>
   </energy>
  </scstep>
  <scstep>
   <time name="dav">    0.37    0.37</time>
   <time name="total">    0.40    0.67</time>
   <energy>
    <i name="alphaZ">    163.73625645 </i>
    <i name="ewald">  -1459.23152796 </i>
    <i name="hartreedc">   -341.28370595 </i>
    <i name="XCdc">     49.60594043 </i>
    <i name="pawpsdc">   2179.10426016 </i>
    <i name="pawaedc">  -2142.06152891 </i>
    <i name="eentropy">     -0.00422387 </i>
    <i name="bandstr">   -156.40875381 </i>
    <i name="atom">   1672.84739955 </i>
    <i name="e_fr_energy">    -33.69588389 </i>
    <i name="e_wo_entrp">    -33.69166002 </i>
    <i name="e_0_energy">    -33.69447594 </i>
   </energy>
  </scstep>
  <structure>
   <crystal>
    <varray name="basis" >
     <v>       3.99839411       0.00000000      -0.00000000 </v>
     <v>       0.00000000       4.05796298      -0.00000000 </v>
     <v>      -0.00000000       0.00000000       4.05796298 </v>
    </varray>
    <i name="volume">     65.84180977 </i>
    <varray name="rec_basis" >
     <v>       0.25010041       0.00000000       0.00000000 </v>
     <v>      -0.00000000       0.24642906      -0.00000000 </v>
     <v>       0.00000000       0.00000000       0.24642906 </v>
    </varray>
   </crystal>
   <varray name="positions" >
    <v>      -0.00000000      -0.00000000      -0.00000000 </v>
    <v>       0.50000000       0.50000000       0.50000000 </v>
    <v>       0.50000000       0.00000000       0.50000000 </v>
    <v>       0.50000000       0.50000000      -0.00000000 </v>
    <v>      -0.00000000       0.50000000       0.50000000 </v>
   </varray>
  </structure>
  <varray name="forces" >
   <v>       0.00000000      -0.00000000       0.00000000 </v>
   <v>      -0.00000000       0.00000000       0.00000000 </v>
   <v>      -0.00000000       0.00000000       0.00000000 </v>
   <v>       0.00000000      -0.00000000       0.00000000 </v>
   <v>       0.00000000      -0.00000000       0.00000000 </v>
  </varray>
  <varray name="stress" >
   <v>      -0.00905019       0.00000000       0.00000000 </v>
   <v>       0.00000000      -0.01599324       0.00000000 </v>
   <v>       0.00000000       0.00000000      -0.01599324 </v>
  </varray>
  <energy>
   <i name="e_fr_energy">    -33.69588389 </i>
   <i name="e_wo_entrp">    -33.69447594 </i>
   <i name="e_0_energy">     -0.00422387 </i>
  </energy>
  <time name="totalsc">    2.51    3.65</time>
 </calculation>
 <calculation>
  <scstep>
   <time name="dav">    0.48    0.48</time>
   <time name="total">    0.57    0.61</time>
   <energy>
    <i name="alphaZ">    163.73805246 </i>
    <i name="ewald">  -1459.23679998 </i>
    <i name="hartreedc">   -341.28602468 </i>
    <i name="XCdc">     49.60633342 </i>
    <i name="pawpsdc">   2179.08779184 </i>
    <i name="pawaedc">  -2142.04500686 </i>
    <i name="eentropy">     -0.00422382 </i>
    <i name="bandstr">   -156.40340582 </i>
    <i name="atom">   1672.84739955 </i>
    <i name="e_fr_energy">    -33.69588389 </i>
    <i name="e_wo_entrp">    -33.69166006 </i>
    <i name="e_0_energy">    -33.69447595 </i>
   </energy>
  </scstep>
  <scstep>
   <time name="dav">    0.29    0.29</time>
   <time name="total">    0.33    0.65</time>
   <energy>
    <i name="alphaZ">    163.73805246 </i>
    <i name="ewald">  -1459.23679998 </i>
    <i name="hartreedc">   -341.28330355 </i>
    <i name="XCdc">     49.60615305 </i>
    <i name="pawpsdc">   2179.09876167 </i>
    <i name="pawaedc">  -2142.05603368 </i>
    <i name="eentropy">     -0.00422430 </i>
    <i name="bandstr">   -156.40588907 </i>
    <i name="atom">   1672.84739955 </i>
    <i name="e_fr_energy">    -33.69588385 </i>
    <i name="e_wo_entrp">    -33.69165955 </i>
    <i name="e_0_energy">    -33.69447575 </i>
   </energy>
  </scstep>
  <structure>
   <crystal>
    <varray name="basis" >
     <v>       3.99838172       0.00000000       0.00000000 </v>
     <v>      -0.00000000       4.05794701      -0.00000000 </v>
     <v>       0.00000000       0.00000000       4.05794701 </v>
    </varray>
    <i name="volume">     65.84108756 </i>
    <varray name="rec_basis" >
     <v>       0.25010118       0.00000000      -0.00000000 </v>
     <v>       0.00000000       0.24643003      -0.00000000 </v>
     <v>      -0.00000000       0.00000000       0.24643003 </v>
    </varray>
   </crystal>
   <varray name="positions" >
    <v>      -0.00000000      -0.00000000      -0.00000000 </v>
    <v>       0.50000000       0.50000000       0.50000000 </v>
    <v>       0.50000000       0.00000000       0.50000000 </v>
    <v>       0.50000000       0.50000000      -0.00000000 </v>
    <v>      -0.00000000       0.50000000       0.50000000 </v>
   </varray>
  </structure>
  <varray name="forces" >
   <v>      -0.00000000      -0.00000000       0.00000000 </v>
   <v>       0.00000000       0.00000000       0.00000000 </v>
   <v>       0.00000000       0.00000000       0.00000000 </v>
   <v>      -0.00000000      -0.00000000       0.00000000 </v>
   <v>      -0.00000000      -0.00000000       0.00000000 </v>
  </varray>
  <varray name="stress" >
   <v>      -0.05048022       0.00000000       0.00000000 </v>
   <v>       0.00000000      -0.04717568       0.00000000 </v>
   <v>       0.00000000       0.00000000      -0.04717568 </v>
  </varray>
  <energy>
   <i name="e_fr_energy">    -33.69588385 </i>
   <i name="e_wo_entrp">    -33.69447575 </i>
   <i name="e_0_energy">     -0.00422430 </i>
  </energy>
  <time name="totalsc">    1.81    2.51</time>
 </calculation>
 <calculation>
  <scstep>
   <time name="dav">    0.45    0.45</time>
   <time name="total">    0.54    0.60</time>
   <energy>
    <i name="alphaZ">    163.73570298 </i>
    <i name="ewald">  -1459.22958279 </i>
    <i name="hartreedc">   -341.28213080 </i>
    <i name="XCdc">     49.60577890 </i>
    <i name="pawpsdc">   2179.10277552 </i>
    <i name="pawaedc">  -2142.06005477 </i>
    <i name="eentropy">     -0.00422337 </i>
    <i name="bandstr">   -156.41154906 </i>
    <i name="atom">   1672.84739955 </i>
    <i name="e_fr_energy">    -33.69588385 </i>
    <i name="e_wo_entrp">    -33.69166048 </i>
    <i name="e_0_energy">    -33.69447606 </i>
   </energy>
  </scstep>
  <scstep>
   <time name="dav">    0.31    0.31</time>
   <time name="total">    0.35    0.47</time>
   <energy>
    <i name="alphaZ">    163.73570298 </i>
    <i name="ewald">  -1459.22958279 </i>
    <i name="hartreedc">   -341.28619968 </i>
    <i name="XCdc">     49.60605347 </i>
    <i name="pawpsdc">   2179.08079442 </i>
    <i name="pawaedc">  -2142.03808859 </i>
    <i name="eentropy">     -0.00422304 </i>
    <i name="bandstr">   -156.40774013 </i>
    <i name="atom">   1672.84739955 </i>
    <i name="e_fr_energy">    -33.69588381 </i>
    <i name="e_wo_entrp">    -33.69166077 </i>
    <i name="e_0_energy">    -33.69447613 </i>
   </energy>
  </scstep>
  <structure>
   <crystal>
    <varray name="basis" >
     <v>       3.99840920       0.00000000       0.00000000 </v>
     <v>      -0.00000000       4.05796218      -0.00000000 </v>
     <v>       0.00000000       0.00000000       4.05796218 </v>
    </varray>
    <i name="volume">     65.84203233 </i>
    <varray name="rec_basis" >
     <v>       0.25009946       0.00000000      -0.00000000 </v>
     <v>       0.00000000       0.24642911      -0.00000000 </v>
     <v>      -0.00000000       0.00000000       0.24642911 </v>
    </varray>
   </crystal>
   <varray name="positions" >
    <v>      -0.00000000      -0.00000000      -0.00000000 </v>
    <v>       0.50000000       0.50000000       0.50000000 </v>
    <v>       0.50000000       0.00000000       0.50000000 </v>
    <v>       0.50000000       0.50000000      -0.00000000 </v>
    <v>      -0.00000000       0.50000000       0.50000000 </v>
   </varray>
  </structure>
  <varray name="forces" >
   <v>      -0.00000000      -0.00000000       0.00000000 </v>
   <v>       0.00000000       0.00000000       0.00000000 </v>
   <v>       0.00000000       0.00000000       0.00000000 </v>
   <v>      -0.00000000      -0.00000000       0.00000000 </v>
   <v>      -0.00000000      -0.00000000       0.00000000 </v>
  </varray>
  <varray name="stress" >
   <v>      -0.02177768       0.00000000       0.00000000 </v>
   <v>       0.00000000      -0.04791729       0.00000000 </v>
   <v>       0.00000000      -0.00000000      -0.04791729 </v>
  </varray>
  <energy>
   <i name="e_fr_energy">    -33.69588381 </i>
   <i name="e_wo_entrp">    -33.69447613 </i>
   <i name="e_0_energy">     -0.00422304 </i>
  </energy>
  <time name="totalsc">    1.79    2.98</time>
 </calculation>
 <calculation>
  <scstep>
   <time name="dav">    0.44    0.44</time>
   <time name="total">    0.53    0.57</time>
   <energy>
    <i name="alphaZ">    163.73631826 </i>
    <i name="ewald">  -1459.23184109 </i>
    <i name="hartreedc">   -341.28585505 </i>
    <i name="XCdc">     49.60610944 </i>
    <i name="pawpsdc">   2179.07356912 </i>
    <i name="pawaedc">  -2142.03087873 </i>
    <i name="eentropy">     -0.00422401 </i>
    <i name="bandstr">   -156.40648130 </i>
    <i name="atom">   1672.84739955 </i>
    <i name="e_fr_energy">    -33.69588381 </i>
    <i name="e_wo_entrp">    -33.69165981 </i>
    <i name="e_0_energy">    -33.69447581 </i>
   </energy>
  </scstep>
  <scstep>
   <time name="dav">    0.29    0.29</time>
   <time name="total">    0.33    0.68</time>
   <energy>
    <i name="alphaZ">    163.73631826 </i>
    <i name="ewald">  -1459.23184109 </i>
    <i name="hartreedc">   -341.28502111 </i>
    <i name="XCdc">     49.60606482 </i>
    <i name="pawpsdc">   2179.07565007 </i>
    <i name="pawaedc">  -2142.03293351 </i>
    <i name="eentropy">     -0.00422367 </i>
    <i name="bandstr">   -156.40729712 </i>
    <i name="atom">   1672.84739955 </i>
    <i name="e_fr_energy">    -33.69588380 </i>
    <i name="e_wo_entrp">    -33.69166013 </i>
    <i name="e_0_energy">    -33.69447591 </i>
   </energy>
  </scstep>
  <structure>
   <crystal>
    <varray name="basis" >
     <v>       3.99838905       0.00000000       0.00000000 </v>
     <v>       0.00000000       4.05796478      -0.00000000 </v>
     <v>      -0.00000000       0.00000000       4.05796478 </v>
    </varray>
    <i name="volume">     65.84178491 </i>
    <varray name="rec_basis" >
     <v>       0.25010072       0.00000000       0.00000000 </v>
     <v>       0.00000000       0.24642895      -0.00000000 </v>
     <v>      -0.00000000       0.00000000       0.24642895 </v>
    </varray>
   </crystal>
   <varray name="positions" >
    <v>      -0.00000000      -0.00000000      -0.00000000 </v>
    <v>       0.50000000       0.50000000       0.50000000 </v>
    <v>       0.50000000       0.00000000       0.50000000 </v>
    <v>       0.50000000       0.50000000      -0.00000000 </v>
    <v>      -0.00000000       0.50000000       0.50000000 </v>
   </varray>
  </structure>
  <varray name="forces" >
   <v>       0.00000000      -0.00000000       0.00000000 </v>
   <v>      -0.00000000       0.00000000       0.00000000 </v>
   <v>      -0.00000000       0.00000000       0.00000000 </v>
   <v>       0.00000000      -0.00000000       0.00000000 </v>
   <v>       0.00000000      -0.00000000       0.00000000 </v>
  </varray>
  <varray name="stress" >
   <v>      -0.04694117       0.00000000       0.00000000 </v>
   <v>       0.00000000      -0.05105129      -0.00000000 </v>
   <v>       0.00000000       0.00000000      -0.05105129 </v>
  </varray>
  <energy>
   <i name="e_fr_energy">    -33.69588380 </i>
   <i name="e_wo_entrp">    -33.69447591 </i>
   <i name="e_0_energy">     -0.00422367 </i>
  </energy>
  <time name="totalsc">    1.76    2.62</time>
 </calculation>
 <calculation>
  <scstep>
   <time name="dav">    0.45    0.45</time>
   <time name="total">    0.54    0.56</time>
   <energy>
    <i name="alphaZ">    163.73985409 </i>
    <i name="ewald">  -1459.23969477 </i>
    <i name="hartreedc">   -341.28907077 </i>
    <i name="XCdc">     49.60669075 </i>
    <i name="pawpsdc">   2179.07432688 </i>
    <i name="pawaedc">  -2142.03161445 </i>
    <i name="eentropy">     -0.00422315 </i>
    <i name="bandstr">   -156.39955205 </i>
    <i name="atom">   1672.84739955 </i>
    <i name="e_fr_energy">    -33.69588392 </i>
    <i name="e_wo_entrp">    -33.69166077 </i>
    <i name="e_0_energy">    -33.69447621 </i>
   </energy>
  </scstep>
  <scstep>
   <time name="dav">    0.49    0.49</time>
   <time name="total">    0.53    0.60</time>
   <energy>
    <i name="alphaZ">    163.73985409 </i>
    <i name="ewald">  -1459.23969477 </i>
    <i name="hartreedc">   -341.28340147 </i>
    <i name="XCdc">     49.60626061 </i>
    <i name="pawpsdc">   2179.10498829 </i>
    <i name="pawaedc">  -2142.06241076 </i>
    <i name="eentropy">     -0.00422609 </i>
    <i name="bandstr">   -156.40465333 </i>
    <i name="atom">   1672.84739955 </i>
    <i name="e_fr_energy">    -33.69588387 </i>
    <i name="e_wo_entrp">    -33.69165778 </i>
    <i name="e_0_energy">    -33.69447517 </i>
   </energy>
  </scstep>
  <structure>
   <crystal>
    <varray name="basis" >
     <v>       3.99845345      -0.00000000       0.00000000 </v>
     <v>      -0.00000000       4.05788829       0.00000000 </v>
     <v>       0.00000000      -0.00000000       4.05788829 </v>
    </varray>
    <i name="volume">     65.84036312 </i>
    <varray name="rec_basis" >
     <v>       0.25009670       0.00000000      -0.00000000 </v>
     <v>      -0.00000000       0.24643360       0.00000000 </v>
     <v>      -0.00000000      -0.00000000       0.24643360 </v>
    </varray>
   </crystal>
   <varray name="positions" >
    <v>      -0.00000000      -0.00000000       0.00000000 </v>
    <v>       0.50000000       0.50000000       0.50000000 </v>
    <v>       0.50000000       0.00000000       0.50000000 </v>
    <v>       0.50000000       0.50000000       0.00000000 </v>
    <v>      -0.00000000       0.50000000       0.50000000 </v>
   </varray>
  </structure>
  <varray name="forces" >
   <v>      -0.00000000       0.00000000       0.00000000 </v>
   <v>      -0.00000000      -0.00000000       0.00000000 </v>
   <v>       0.00000000      -0.00000000       0.00000000 </v>
   <v>      -0.00000000       0.00000000       0.00000000 </v>
   <v>      -0.00000000       0.00000000       0.00000000 </v>
  </varray>
  <varray name="stress" >
   <v>      -0.01801275       0.00000000      -0.00000000 </v>
   <v>       0.00000000      -0.01734463       0.00000000 </v>
   <v>      -0.00000000      -0.00000000      -0.01734463 </v>
  </varray>
  <energy>
   <i name="e_fr_energy">    -33.69588387 </i>
   <i name="e_wo_entrp">    -33.69447517 </i>
   <i name="e_0_energy">     -0.00422609 </i>
  </energy>
  <time name="totalsc">    1.98    2.92</time>
 </calculation>
 <calculation>
  <scstep>
   <time name="dav">    0.46    0.46</time>
   <time name="total">    0.55    0.58</time>
   <energy>
    <i name="alphaZ">    163.74154214 </i>
    <i name="ewald">  -1459.24332002 </i>
    <i name="hartreedc">   -341.28662296 </i>
    <i name="XCdc">     49.60667693 </i>
    <i name="pawpsdc">   2179.12281111 </i>
    <i name="pawaedc">  -2142.08022067 </i>
    <i name="eentropy">     -0.00422460 </i>
    <i name="bandstr">   -156.39992533 </i>
    <i name="atom">   1672.84739955 </i>
    <i name="e_fr_energy">    -33.69588385 </i>
    <i name="e_wo_entrp">    -33.69165925 </i>
    <i name="e_0_energy">    -33.69447565 </i>
   </energy>
  </scstep>
  <scstep>
   <time name="dav">    0.35    0.35</time>
   <time name="total">    0.39    0.46</time>
   <energy>
    <i name="alphaZ">    163.74154214 </i>
    <i name="ewald">  -1459.24332002 </i>
    <i name="hartreedc">   -341.28340918 </i>
    <i name="XCdc">     49.60643298 </i>
    <i name="pawpsdc">   2179.14997278 </i>
    <i name="pawaedc">  -2142.10749189 </i>
    <i name="eentropy">     -0.00422650 </i>
    <i name="bandstr">   -156.40278368 </i>
    <i name="atom">   1672.84739955 </i>
    <i name="e_fr_energy">    -33.69588383 </i>
    <i name="e_wo_entrp">    -33.69165733 </i>
    <i name="e_0_energy">    -33.69447499 </i>
   </energy>
  </scstep>
  <structure>
   <crystal>
    <varray name="basis" >
     <v>       3.99848855      -0.00000000       0.00000000 </v>
     <v>      -0.00000000       4.05784956       0.00000000 </v>
     <v>       0.00000000      -0.00000000       4.05784956 </v>
    </varray>
    <i name="volume">     65.83968435 </i>
    <varray name="rec_basis" >
     <v>       0.25009450       0.00000000      -0.00000000 </v>
     <v>      -0.00000000       0.24643595       0.00000000 </v>
     <v>      -0.00000000      -0.00000000       0.24643595 </v>
    </varray>
   </crystal>
   <varray name="positions" >
    <v>      -0.00000000      -0.00000000       0.00000000 </v>
    <v>       0.50000000       0.50000000       0.50000000 </v>
    <v>       0.50000000       0.00000000       0.50000000 </v>
    <v>       0.50000000       0.50000000       0.00000000 </v>
    <v>      -0.00000000       0.50000000       0.50000000 </v>
   </varray>
  </structure>
  <varray name="forces" >
   <v>      -0.00000000       0.00000000       0.00000000 </v>
   <v>      -0.00000000      -0.00000000       0.00000000 </v>
   <v>       0.00000000      -0.00000000       0.00000000 </v>
   <v>      -0.00000000       0.00000000       0.00000000 </v>
   <v>      -0.00000000       0.00000000       0.00000000 </v>
  </varray>
  <varray name="stress" >
   <v>      -0.03617124       0.00000000       0.00000000 </v>
   <v>       0.00000000      -0.01257116       0.00000000 </v>
   <v>      -0.00000000      -0.00000000      -0.01257116 </v>
  </varray>
  <energy>
   <i name="e_fr_energy">    -33.69588383 </i>
   <i name="e_wo_entrp">    -33.69447499 </i>
   <i name="e_0_energy">     -0.00422650 </i>
  </energy>
  <time name="totalsc">    2.10    2.71</time>
 </calculation>
 <calculation>
  <scstep>
   <time name="dav">    0.29    0.29</time>
   <time name="total">    0.38    0.53</time>
   <energy>
    <i name="alphaZ">    163.74150666 </i>
    <i name="ewald">  -1459.24338276 </i>
    <i name="hartreedc">   -341.28372153 </i>
    <i name="XCdc">     49.60648120 </i>
    <i name="pawpsdc">   2179.16941958 </i>
    <i name="pawaedc">  -2142.12692221 </i>
    <i name="eentropy">     -0.00422580 </i>
    <i name="bandstr">   -156.40243852 </i>
    <i name="atom">   1672.84739955 </i>
    <i name="e_fr_energy">    -33.69588382 </i>
    <i name="e_wo_entrp">    -33.69165802 </i>
    <i name="e_0_energy">    -33.69447522 </i>
   </energy>
  </scstep>
  <scstep>
   <time name="dav">    0.29    0.29</time>
   <time name="total">    0.33    0.47</time>
   <energy>
    <i name="alphaZ">    163.74150666 </i>
    <i name="ewald">  -1459.24338276 </i>
    <i name="hartreedc">   -341.28321404 </i>
    <i name="XCdc">     49.60644381 </i>
    <i name="pawpsdc">   2179.17957976 </i>
    <i name="pawaedc">  -2142.13710081 </i>
    <i name="eentropy">     -0.00422610 </i>
    <i name="bandstr">   -156.40288989 </i>
    <i name="atom">   1672.84739955 </i>
    <i name="e_fr_energy">    -33.69588383 </i>
    <i name="e_wo_entrp">    -33.69165773 </i>
    <i name="e_0_energy">    -33.69447513 </i>
   </energy>
  </scstep>
  <structure>
   <crystal>
    <varray name="basis" >
     <v>       3.99848293      -0.00000000       0.00000000 </v>
     <v>      -0.00000000       4.05785285       0.00000000 </v>
     <v>       0.00000000      -0.00000000       4.05785285 </v>
    </varray>
    <i name="volume">     65.83969862 </i>
    <varray name="rec_basis" >
     <v>       0.25009485       0.00000000      -0.00000000 </v>
     <v>      -0.00000000       0.24643575       0.00000000 </v>
     <v>      -0.00000000      -0.00000000       0.24643575 </v>
    </varray>
   </crystal>
   <varray name="positions" >
    <v>      -0.00000000      -0.00000000       0.00000000 </v>
    <v>       0.50000000       0.50000000       0.50000000 </v>
    <v>       0.50000000       0.00000000       0.50000000 </v>
    <v>       0.50000000       0.50000000       0.00000000 </v>
    <v>      -0.00000000       0.50000000       0.50000000 </v>
   </varray>
  </structure>
  <varray name="forces" >
   <v>      -0.00000000       0.00000000       0.00000000 </v>
   <v>      -0.00000000      -0.00000000       0.00000000 </v>
   <v>       0.00000000      -0.00000000       0.00000000 </v>
   <v>      -0.00000000       0.00000000       0.00000000 </v>
   <v>      -0.00000000       0.00000000       0.00000000 </v>
  </varray>
  <varray name="stress" >
   <v>      -0.04220688       0.00000000       0.00000000 </v>
   <v>       0.00000000       0.01511656       0.00000000 </v>
   <v>      -0.00000000      -0.00000000       0.01511656 </v>
  </varray>
  <energy>
   <i name="e_fr_energy">    -33.69588383 </i>
   <i name="e_wo_entrp">    -33.69447513 </i>
   <i name="e_0_energy">     -0.00422610 </i>
  </energy>
  <time name="totalsc">    1.61    2.89</time>
 </calculation>
 <calculation>
  <scstep>
   <time name="dav">    0.45    0.45</time>
   <time name="total">    0.54    0.56</time>
   <energy>
    <i name="alphaZ">    163.73767501 </i>
    <i name="ewald">  -1459.23513241 </i>
    <i name="hartreedc">   -341.27868129 </i>
    <i name="XCdc">     49.60577619 </i>
    <i name="pawpsdc">   2179.18899660 </i>
    <i name="pawaedc">  -2142.14650150 </i>
    <i name="eentropy">     -0.00422645 </i>
    <i name="bandstr">   -156.41118975 </i>
    <i name="atom">   1672.84739955 </i>
    <i name="e_fr_energy">    -33.69588404 </i>
    <i name="e_wo_entrp">    -33.69165759 </i>
    <i name="e_0_energy">    -33.69447523 </i>
   </energy>
  </scstep>
  <scstep>
   <time name="dav">    0.49    0.49</time>
   <time name="total">    0.58    0.66</time>
   <energy>
    <i name="e_fr_energy">    -33.69588393 </i>
    <i name="e_wo_entrp">    -33.69166057 </i>
    <i name="e_0_energy">    -33.69447615 </i>
   </energy>
  </scstep>
  <scstep>
   <time name="dav">    0.35    0.35</time>
   <time name="total">    0.39    0.46</time>
   <energy>
    <i name="alphaZ">    163.73767501 </i>
    <i name="ewald">  -1459.23513241 </i>
    <i name="hartreedc">   -341.28323246 </i>
    <i name="XCdc">     49.60609150 </i>
    <i name="pawpsdc">   2179.13469683 </i>
    <i name="pawaedc">  -2142.09207204 </i>
    <i name="eentropy">     -0.00422469 </i>
    <i name="bandstr">   -156.40708519 </i>
    <i name="atom">   1672.84739955 </i>
    <i name="e_fr_energy">    -33.69588389 </i>
    <i name="e_wo_entrp">    -33.69165921 </i>
    <i name="e_0_energy">    -33.69447567 </i>
   </energy>
  </scstep>
  <structure>
   <crystal>
    <varray name="basis" >
     <v>       3.99840400       0.00000000      -0.00000000 </v>
     <v>       0.00000000       4.05794038      -0.00000000 </v>
     <v>       0.00000000       0.00000000       4.05794038 </v>
    </varray>
    <i name="volume">     65.84123934 </i>
    <varray name="rec_basis" >
     <v>       0.25009979      -0.00000000      -0.00000000 </v>
     <v>      -0.00000000       0.24643043      -0.00000000 </v>
     <v>       0.00000000       0.00000000       0.24643043 </v>
    </varray>
   </crystal>
   <varray name="positions" >
    <v>       0.00000000      -0.00000000      -0.00000000 </v>
    <v>       0.50000000       0.50000000       0.50000000 </v>
    <v>       0.50000000       0.00000000       0.50000000 </v>
    <v>       0.50000000       0.50000000      -0.00000000 </v>
    <v>       0.00000000       0.50000000       0.50000000 </v>
   </varray>
  </structure>
  <varray name="forces" >
   <v>      -0.00000000      -0.00000000       0.00000000 </v>
   <v>       0.00000000       0.00000000       0.00000000 </v>
   <v>       0.00000000       0.00000000       0.00000000 </v>
   <v>      -0.00000000      -0.00000000       0.00000000 </v>
   <v>      -0.00000000      -0.00000000       0.00000000 </v>
  </varray>
  <varray name="stress" >
   <v>      -0.05622013       0.00000000       0.00000000 </v>
   <v>       0.00000000       0.01708821       0.00000000 </v>
   <v>       0.00000000       0.00000000       0.01708821 </v>
  </varray>
  <energy>
   <i name="e_fr_energy">    -33.69588389 </i>
   <i name="e_wo_entrp">    -33.69447567 </i>
   <i name="e_0_energy">     -0.00422469 </i>
  </energy>
  <time name="totalsc">    2.41    3.28</time>
 </calculation>
 <calculation>
  <scstep>
   <time name="dav">    0.45    0.45</time>
   <time name="total">    0.54    0.59</time>
   <energy>
    <i name="alphaZ">    163.75249674 </i>
    <i name="ewald">  -1459.26699742 </i>
    <i name="hartreedc">   -341.30150732 </i>
    <i name="XCdc">     49.60873745 </i>
    <i name="pawpsdc">   2179.10137811 </i>
    <i name="pawaedc">  -2142.05866492 </i>
    <i name="eentropy">     -0.00422215 </i>
    <i name="bandstr">   -156.37450548 </i>
    <i name="atom">   1672.84739955 </i>
    <i name="e_fr_energy">    -33.69588544 </i>
    <i name="e_wo_entrp">    -33.69166329 </i>
    <i name="e_0_energy">    -33.69447806 </i>
   </energy>
  </scstep>
  <scstep>
   <time name="dav">    0.53    0.53</time>
   <time name="total">    0.62    0.80</time>
   <energy>
    <i name="e_fr_energy">    -33.69588406 </i>
    <i name="e_wo_entrp">    -33.69164906 </i>
    <i name="e_0_energy">    -33.69447239 </i>
   </energy>
  </scstep>
  <scstep>
   <time name="dav">    0.53    0.53</time>
   <time name="total">    0.62    0.77</time>
   <energy>
    <i name="e_fr_energy">    -33.69588330 </i>
    <i name="e_wo_entrp">    -33.69165361 </i>
    <i name="e_0_energy">    -33.69447340 </i>
   </energy>
  </scstep>
  <scstep>
   <time name="dav">    0.50    0.50</time>
   <time name="total">    0.59    0.68</time>
   <energy>
    <i name="e_fr_energy">    -33.69588314 </i>
    <i name="e_wo_entrp">    -33.69165111 </i>
    <i name="e_0_energy">    -33.69447246 </i>
   </energy>
  </scstep>
  <scstep>
   <time name="dav">    0.31    0.31</time>
   <time name="total">    0.35    0.61</time>
   <energy>
    <i name="alphaZ">    163.75249674 </i>
    <i name="ewald">  -1459.26699742 </i>
    <i name="hartreedc">   -341.27912627 </i>
    <i name="XCdc">     49.60718506 </i>
    <i name="pawpsdc">   2179.45472268 </i>
    <i name="pawaedc">  -2142.41272892 </i>
    <i name="eentropy">     -0.00423202 </i>
    <i name="bandstr">   -156.39460259 </i>
    <i name="atom">   1672.84739955 </i>
    <i name="e_fr_energy">    -33.69588320 </i>
    <i name="e_wo_entrp">    -33.69165117 </i>
    <i name="e_0_energy">    -33.69447252 </i>
   </energy>
  </scstep>
  <structure>
   <crystal>
    <varray name="basis" >
     <v>       3.99871095      -0.00000000       0.00000000 </v>
     <v>      -0.00000000       4.05760098       0.00000000 </v>
     <v>       0.00000000      -0.00000000       4.05760098 </v>
    </varray>
    <i name="volume">     65.83527985 </i>
    <varray name="rec_basis" >
     <v>       0.25008059       0.00000000      -0.00000000 </v>
     <v>      -0.00000000       0.24645104       0.00000000 </v>
     <v>      -0.00000000      -0.00000000       0.24645104 </v>
    </varray>
   </crystal>
   <varray name="positions" >
    <v>      -0.00000000       0.00000000       0.00000000 </v>
    <v>       0.50000000       0.50000000       0.50000000 </v>
    <v>       0.50000000      -0.00000000       0.50000000 </v>
    <v>       0.50000000       0.50000000       0.00000000 </v>
    <v>      -0.00000000       0.50000000       0.50000000 </v>
   </varray>
  </structure>
  <varray name="forces" >
   <v>      -0.00000000       0.00000000       0.00000000 </v>
   <v>      -0.00000000      -0.00000000       0.00000000 </v>
   <v>       0.00000000      -0.00000000       0.00000000 </v>
   <v>      -0.00000000       0.00000000       0.00000000 </v>
   <v>      -0.00000000       0.00000000       0.00000000 </v>
  </varray>
  <varray name="stress" >
   <v>      -0.05957511       0.00000000       0.00000000 </v>
   <v>       0.00000000       0.24387273       0.00000000 </v>
   <v>      -0.00000000      -0.00000000       0.24387273 </v>
  </varray>
  <energy>
   <i name="e_fr_energy">    -33.69588320 </i>
   <i name="e_wo_entrp">    -33.69447252 </i>
   <i name="e_0_energy">     -0.00423202 </i>
  </energy>
  <time name="totalsc">    3.62    4.96</time>
 </calculation>
 <calculation>
  <scstep>
   <time name="dav">    0.29    0.29</time>
   <time name="total">    0.39    0.42</time>
   <energy>
    <i name="alphaZ">    163.75241065 </i>
    <i name="ewald">  -1459.26686158 </i>
    <i name="hartreedc">   -341.27949332 </i>
    <i name="XCdc">     49.60718859 </i>
    <i name="pawpsdc">   2179.44254237 </i>
    <i name="pawaedc">  -2142.40043010 </i>
    <i name="eentropy">     -0.00423204 </i>
    <i name="bandstr">   -156.39440741 </i>
    <i name="atom">   1672.84739955 </i>
    <i name="e_fr_energy">    -33.69588328 </i>
    <i name="e_wo_entrp">    -33.69165124 </i>
    <i name="e_0_energy">    -33.69447260 </i>
   </energy>
  </scstep>
  <scstep>
   <time name="dav">    0.29    0.29</time>
   <time name="total">    0.33    0.46</time>
   <energy>
    <i name="alphaZ">    163.75241065 </i>
    <i name="ewald">  -1459.26686158 </i>
    <i name="hartreedc">   -341.27963810 </i>
    <i name="XCdc">     49.60719804 </i>
    <i name="pawpsdc">   2179.44231001 </i>
    <i name="pawaedc">  -2142.40017727 </i>
    <i name="eentropy">     -0.00423195 </i>
    <i name="bandstr">   -156.39429265 </i>
    <i name="atom">   1672.84739955 </i>
    <i name="e_fr_energy">    -33.69588329 </i>
    <i name="e_wo_entrp">    -33.69165134 </i>
    <i name="e_0_energy">    -33.69447264 </i>
   </energy>
  </scstep>
  <structure>
   <crystal>
    <varray name="basis" >
     <v>       3.99870744      -0.00000000       0.00000000 </v>
     <v>      -0.00000000       4.05760383       0.00000000 </v>
     <v>       0.00000000      -0.00000000       4.05760383 </v>
    </varray>
    <i name="volume">     65.83531447 </i>
    <varray name="rec_basis" >
     <v>       0.25008081       0.00000000      -0.00000000 </v>
     <v>      -0.00000000       0.24645087       0.00000000 </v>
     <v>      -0.00000000      -0.00000000       0.24645087 </v>
    </varray>
   </crystal>
   <varray name="positions" >
    <v>      -0.00000000       0.00000000       0.00000000 </v>
    <v>       0.50000000       0.50000000       0.50000000 </v>
    <v>       0.50000000      -0.00000000       0.50000000 </v>
    <v>       0.50000000       0.50000000       0.00000000 </v>
    <v>      -0.00000000       0.50000000       0.50000000 </v>
   </varray>
  </structure>
  <varray name="forces" >
   <v>      -0.00000000       0.00000000       0.00000000 </v>
   <v>      -0.00000000      -0.00000000       0.00000000 </v>
   <v>       0.00000000      -0.00000000       0.00000000 </v>
   <v>      -0.00000000       0.00000000       0.00000000 </v>
   <v>      -0.00000000       0.00000000       0.00000000 </v>
  </varray>
  <varray name="stress" >
   <v>      -0.06449529       0.00000000       0.00000000 </v>
   <v>       0.00000000       0.23498855       0.00000000 </v>
   <v>      -0.00000000      -0.00000000       0.23498855 </v>
  </varray>
  <energy>
   <i name="e_fr_energy">    -33.69588329 </i>
   <i name="e_wo_entrp">    -33.69447264 </i>
   <i name="e_0_energy">     -0.00423195 </i>
  </energy>
  <time name="totalsc">    1.62    2.60</time>
 </calculation>
 <calculation>
  <scstep>
   <time name="dav">    0.44    0.44</time>
   <time name="total">    0.53    0.68</time>
   <energy>
    <i name="alphaZ">    163.75565849 </i>
    <i name="ewald">  -1459.28552873 </i>
    <i name="hartreedc">   -341.27667884 </i>
    <i name="XCdc">     49.60777235 </i>
    <i name="pawpsdc">   2179.44198351 </i>
    <i name="pawaedc">  -2142.39984329 </i>
    <i name="eentropy">     -0.00423546 </i>
    <i name="bandstr">   -156.38241227 </i>
    <i name="atom">   1672.84739955 </i>
    <i name="e_fr_energy">    -33.69588468 </i>
    <i name="e_wo_entrp">    -33.69164922 </i>
    <i name="e_0_energy">    -33.69447286 </i>
   </energy>
  </scstep>
  <scstep>
   <time name="dav">    0.50    0.50</time>
   <time name="total">    0.59    0.67</time>
   <energy>
    <i name="e_fr_energy">    -33.69588406 </i>
    <i name="e_wo_entrp">    -33.69165451 </i>
    <i name="e_0_energy">    -33.69447421 </i>
   </energy>
  </scstep>
  <scstep>
   <time name="dav">    0.46    0.46</time>
   <time name="total">    0.55    0.67</time>
   <energy>
    <i name="e_fr_energy">    -33.69588385 </i>
    <i name="e_wo_entrp">    -33.69165490 </i>
    <i name="e_0_energy">    -33.69447420 </i>
   </energy>
  </scstep>
  <scstep>
   <time name="dav">    0.31    0.31</time>
   <time name="total">    0.35    0.65</time>
   <energy>
    <i name="alphaZ">    163.75565849 </i>
    <i name="ewald">  -1459.28552873 </i>
    <i name="hartreedc">   -341.26824106 </i>
    <i name="XCdc">     49.60733893 </i>
    <i name="pawpsdc">   2179.43889300 </i>
    <i name="pawaedc">  -2142.39664055 </i>
    <i name="eentropy">     -0.00422756 </i>
    <i name="bandstr">   -156.39053588 </i>
    <i name="atom">   1672.84739955 </i>
    <i name="e_fr_energy">    -33.69588381 </i>
    <i name="e_wo_entrp">    -33.69165626 </i>
    <i name="e_0_energy">    -33.69447463 </i>
   </energy>
  </scstep>
  <structure>
   <crystal>
    <varray name="basis" >
     <v>       3.99836397      -0.00000000      -0.00000000 </v>
     <v>      -0.00000000       4.05773787       0.00000000 </v>
     <v>       0.00000000      -0.00000000       4.05773787 </v>
    </varray>
    <i name="volume">     65.83400872 </i>
    <varray name="rec_basis" >
     <v>       0.25010229       0.00000000      -0.00000000 </v>
     <v>       0.00000000       0.24644273       0.00000000 </v>
     <v>       0.00000000      -0.00000000       0.24644273 </v>
    </varray>
   </crystal>
   <varray name="positions" >
    <v>      -0.00000000       0.00000000       0.00000000 </v>
    <v>       0.50000000       0.50000000       0.50000000 </v>
    <v>       0.50000000      -0.00000000       0.50000000 </v>
    <v>       0.50000000       0.50000000       0.00000000 </v>
    <v>      -0.00000000       0.50000000       0.50000000 </v>
   </varray>
  </structure>
  <varray name="forces" >
   <v>      -0.00000000       0.00000000       0.00000000 </v>
   <v>      -0.00000000      -0.00000000       0.00000000 </v>
   <v>       0.00000000      -0.00000000       0.00000000 </v>
   <v>      -0.00000000       0.00000000       0.00000000 </v>
   <v>      -0.00000000       0.00000000       0.00000000 </v>
  </varray>
  <varray name="stress" >
   <v>       0.03048641       0.00000000       0.00000000 </v>
   <v>       0.00000000       0.16939277      -0.00000000 </v>
   <v>      -0.00000000       0.00000000       0.16939277 </v>
  </varray>
  <energy>
   <i name="e_fr_energy">    -33.69588381 </i>
   <i name="e_wo_entrp">    -33.69447463 </i>
   <i name="e_0_energy">     -0.00422756 </i>
  </energy>
  <time name="totalsc">    2.91    4.12</time>
 </calculation>
 <calculation>
  <scstep>
   <time name="dav">    0.44    0.44</time>
   <time name="total">    0.53    0.64</time>
   <energy>
    <i name="alphaZ">    163.75589113 </i>
    <i name="ewald">  -1459.29242759 </i>
    <i name="hartreedc">   -341.26456383 </i>
    <i name="XCdc">     49.60734808 </i>
    <i name="pawpsdc">   2179.43468071 </i>
    <i name="pawaedc">  -2142.39245295 </i>
    <i name="eentropy">     -0.00423008 </i>
    <i name="bandstr">   -156.38752931 </i>
    <i name="atom">   1672.84739955 </i>
    <i name="e_fr_energy">    -33.69588428 </i>
    <i name="e_wo_entrp">    -33.69165420 </i>
    <i name="e_0_energy">    -33.69447426 </i>
   </energy>
  </scstep>
  <scstep>
   <time name="dav">    0.50    0.50</time>
   <time name="total">    0.59    0.64</time>
   <energy>
    <i name="e_fr_energy">    -33.69588402 </i>
    <i name="e_wo_entrp">    -33.69165850 </i>
    <i name="e_0_energy">    -33.69447551 </i>
   </energy>
  </scstep>
  <scstep>
   <time name="dav">    0.41    0.41</time>
   <time name="total">    0.45    0.56</time>
   <energy>
    <i name="alphaZ">    163.75589113 </i>
    <i name="ewald">  -1459.29242759 </i>
    <i name="hartreedc">   -341.26084227 </i>
    <i name="XCdc">     49.60715876 </i>
    <i name="pawpsdc">   2179.41630828 </i>
    <i name="pawaedc">  -2142.37393392 </i>
    <i name="eentropy">     -0.00422608 </i>
    <i name="bandstr">   -156.39121179 </i>
    <i name="atom">   1672.84739955 </i>
    <i name="e_fr_energy">    -33.69588393 </i>
    <i name="e_wo_entrp">    -33.69165784 </i>
    <i name="e_0_energy">    -33.69447523 </i>
   </energy>
  </scstep>
  <structure>
   <crystal>
    <varray name="basis" >
     <v>       3.99814383      -0.00000000      -0.00000000 </v>
     <v>       0.00000000       4.05784669       0.00000000 </v>
     <v>       0.00000000      -0.00000000       4.05784669 </v>
    </varray>
    <i name="volume">     65.83391520 </i>
    <varray name="rec_basis" >
     <v>       0.25011606       0.00000000      -0.00000000 </v>
     <v>       0.00000000       0.24643612       0.00000000 </v>
     <v>       0.00000000      -0.00000000       0.24643612 </v>
    </varray>
   </crystal>
   <varray name="positions" >
[...]
    <i name="ewald">  -1459.24635562 </i>
    <i name="hartreedc">   -341.27997654 </i>
    <i name="XCdc">     49.60638592 </i>
    <i name="pawpsdc">   2179.17876078 </i>
    <i name="pawaedc">  -2142.13616524 </i>
    <i name="eentropy">     -0.00422382 </i>
    <i name="bandstr">   -156.40300948 </i>
    <i name="atom">   1672.84739955 </i>
    <i name="e_fr_energy">    -33.69588392 </i>
    <i name="e_wo_entrp">    -33.69166009 </i>
    <i name="e_0_energy">    -33.69447598 </i>
   </energy>
  </scstep>
  <structure>
   <crystal>
    <varray name="basis" >
     <v>       3.99835856      -0.00000000      -0.00000000 </v>
     <v>       0.00000000       4.05791851       0.00000000 </v>
     <v>       0.00000000      -0.00000000       4.05791851 </v>
    </varray>
    <i name="volume">     65.83978150 </i>
    <varray name="rec_basis" >
     <v>       0.25010263       0.00000000      -0.00000000 </v>
     <v>       0.00000000       0.24643176       0.00000000 </v>
     <v>       0.00000000      -0.00000000       0.24643176 </v>
    </varray>
   </crystal>
   <varray name="positions" >
    <v>      -0.00000000       0.00000000      -0.00000000 </v>
    <v>       0.50000000       0.50000000       0.50000000 </v>
    <v>       0.50000000      -0.00000000       0.50000000 </v>
    <v>       0.50000000       0.50000000       0.00000000 </v>
    <v>      -0.00000000       0.50000000       0.50000000 </v>
   </varray>
  </structure>
  <varray name="forces" >
   <v>       0.00000000       0.00000000      -0.00000000 </v>
   <v>       0.00000000      -0.00000000      -0.00000000 </v>
   <v>      -0.00000000      -0.00000000      -0.00000000 </v>
   <v>       0.00000000       0.00000000       0.00000000 </v>
   <v>       0.00000000       0.00000000      -0.00000000 </v>
  </varray>
  <varray name="stress" >
   <v>       0.00985558       0.00000000       0.00000000 </v>
   <v>       0.00000000       0.00723360       0.00000000 </v>
   <v>       0.00000000       0.00000000       0.00723360 </v>
  </varray>
  <energy>
   <i name="e_fr_energy">    -33.69588392 </i>
   <i name="e_wo_entrp">    -33.69447598 </i>
   <i name="e_0_energy">     -0.00422382 </i>
  </energy>
  <time name="totalsc">    1.69    2.25</time>
  <eigenvalues>
   <array>
    <dimension dim="1">band</dimension>
    <dimension dim="2">kpoint</dimension>
    <dimension dim="3">spin</dimension>
    <field>eigene</field>
    <field>occ</field>
    <set>
     <set comment="spin 1">
      <set comment="kpoint 1">
       <r>  -23.4482    1.0000 </r>
       <r>  -14.7705    1.0000 </r>
       <r>  -14.2992    1.0000 </r>
       <r>   -8.5859    1.0000 </r>
       <r>   -8.5859    1.0000 </r>
       <r>   -8.5041    1.0000 </r>
       <r>   -1.7168    1.0000 </r>
       <r>   -0.1889    1.0000 </r>
       <r>   -0.1889    1.0000 </r>
       <r>    0.5716    1.0000 </r>
       <r>    0.6642    1.0000 </r>
       <r>    1.3526    1.0000 </r>
       <r>    1.3526    1.0000 </r>
       <r>    4.2531    1.0243 </r>
       <r>    4.3412    0.8972 </r>
       <r>    4.3412    0.8972 </r>
       <r>    6.4130   -0.0000 </r>
       <r>    6.5361   -0.0000 </r>
       <r>    6.6563   -0.0000 </r>
       <r>    7.3725   -0.0000 </r>
       <r>   10.0505    0.0000 </r>
       <r>   10.0630    0.0000 </r>
       <r>   10.0630    0.0000 </r>
       <r>   11.4776    0.0000 </r>
      </set>
      <set comment="kpoint 2">
       <r>  -23.4149    1.0000 </r>
       <r>  -14.9142    1.0000 </r>
       <r>  -14.2852    1.0000 </r>
       <r>   -8.5312    1.0000 </r>
       <r>   -8.5312    1.0000 </r>
       <r>   -8.3868    1.0000 </r>
       <r>   -1.7168    1.0000 </r>
       <r>   -0.4117    1.0000 </r>
       <r>   -0.4117    1.0000 </r>
       <r>    0.3234    1.0000 </r>
       <r>    0.7241    1.0000 </r>
       <r>    1.2538    1.0000 </r>
       <r>    1.2538    1.0000 </r>
       <r>    4.3254    0.9335 </r>
       <r>    4.3328    0.9173 </r>
       <r>    4.3328    0.9173 </r>
       <r>    6.4151   -0.0000 </r>
       <r>    6.5223   -0.0000 </r>
       <r>    7.2408   -0.0000 </r>
       <r>    8.0019   -0.0000 </r>
       <r>    9.9133    0.0000 </r>
       <r>   10.4029    0.0000 </r>
       <r>   10.4029    0.0000 </r>
       <r>   10.8780    0.0000 </r>
      </set>
      <set comment="kpoint 3">
       <r>  -23.3598    1.0000 </r>
       <r>  -15.1400    1.0000 </r>
       <r>  -14.2632    1.0000 </r>
       <r>   -8.4388    1.0000 </r>
       <r>   -8.4388    1.0000 </r>
       <r>   -8.1921    1.0000 </r>
       <r>   -1.9080    1.0000 </r>
       <r>   -0.7909    1.0000 </r>
       <r>   -0.7909    1.0000 </r>
       <r>   -0.1349    1.0000 </r>
       <r>    1.1785    1.0000 </r>
       <r>    1.1785    1.0000 </r>
       <r>    1.5630    1.0000 </r>
       <r>    4.2540    1.0238 </r>
       <r>    4.2540    1.0238 </r>
       <r>    4.4497    0.5078 </r>
       <r>    5.1651   -0.0000 </r>
       <r>    6.4183   -0.0000 </r>
       <r>    8.3919   -0.0000 </r>
       <r>    9.6816   -0.0000 </r>
       <r>    9.9318    0.0000 </r>
       <r>   10.7105    0.0000 </r>
       <r>   11.0054    0.0000 </r>
       <r>   11.0054    0.0000 </r>
      </set>
      <set comment="kpoint 4">
       <r>  -23.4225    1.0000 </r>
       <r>  -14.7343    1.0000 </r>
       <r>  -14.2919    1.0000 </r>
       <r>   -8.6525    1.0000 </r>
       <r>   -8.5629    1.0000 </r>
       <r>   -8.4594    1.0000 </r>
       <r>   -1.4362    1.0000 </r>
       <r>   -0.7370    1.0000 </r>
       <r>   -0.1633    1.0000 </r>
       <r>    0.2978    1.0000 </r>
       <r>    0.4009    1.0000 </r>
       <r>    0.7313    1.0000 </r>
       <r>    0.9352    1.0000 </r>
       <r>    4.4090    0.6757 </r>
       <r>    4.8371   -0.0100 </r>
       <r>    4.8959   -0.0037 </r>
       <r>    6.4560   -0.0000 </r>
       <r>    6.7912   -0.0000 </r>
       <r>    7.2682   -0.0000 </r>
       <r>    8.0595   -0.0000 </r>
       <r>    8.8203   -0.0000 </r>
       <r>    9.9246    0.0000 </r>
       <r>   10.1192    0.0000 </r>
       <r>   10.4834    0.0000 </r>
      </set>
      <set comment="kpoint 5">
       <r>  -23.3917    1.0000 </r>
       <r>  -14.8291    1.0000 </r>
       <r>  -14.2869    1.0000 </r>
       <r>   -8.7518    1.0000 </r>
       <r>   -8.5063    1.0000 </r>
       <r>   -8.3384    1.0000 </r>
       <r>   -1.3959    1.0000 </r>
       <r>   -0.8966    1.0000 </r>
       <r>   -0.3693    1.0000 </r>
       <r>    0.1374    1.0000 </r>
       <r>    0.4757    1.0000 </r>
       <r>    0.8462    1.0000 </r>
       <r>    0.9251    1.0000 </r>
       <r>    4.2654    1.0164 </r>
       <r>    4.8090   -0.0149 </r>
       <r>    4.9054   -0.0031 </r>
       <r>    6.5016   -0.0000 </r>
       <r>    6.9257   -0.0000 </r>
       <r>    7.5367   -0.0000 </r>
       <r>    8.3426   -0.0000 </r>
       <r>    8.9718   -0.0000 </r>
       <r>    9.6451   -0.0000 </r>
       <r>   10.3916    0.0000 </r>
       <r>   11.2167    0.0000 </r>
      </set>
      <set comment="kpoint 6">
       <r>  -23.3409    1.0000 </r>
       <r>  -14.9956    1.0000 </r>
       <r>  -14.2637    1.0000 </r>
       <r>   -8.7571    1.0000 </r>
       <r>   -8.4105    1.0000 </r>
       <r>   -8.3068    1.0000 </r>
       <r>   -1.5346    1.0000 </r>
       <r>   -1.0035    1.0000 </r>
       <r>   -0.7476    1.0000 </r>
       <r>   -0.0788    1.0000 </r>
       <r>    0.7821    1.0000 </r>
       <r>    0.8062    1.0000 </r>
       <r>    1.3899    1.0000 </r>
       <r>    4.0225    1.0049 </r>
       <r>    4.7170   -0.0341 </r>
       <r>    4.9941   -0.0004 </r>
       <r>    5.2043   -0.0000 </r>
       <r>    6.9503   -0.0000 </r>
       <r>    8.3770   -0.0000 </r>
       <r>    9.2596   -0.0000 </r>
       <r>    9.7897   -0.0000 </r>
       <r>    9.8612   -0.0000 </r>
       <r>   11.0532    0.0000 </r>
       <r>   12.1631    0.0000 </r>
      </set>
      <set comment="kpoint 7">
       <r>  -23.3802    1.0000 </r>
       <r>  -14.7683    1.0000 </r>
       <r>  -14.1775    1.0000 </r>
       <r>   -8.7423    1.0000 </r>
       <r>   -8.5251    1.0000 </r>
       <r>   -8.3847    1.0000 </r>
       <r>   -1.7447    1.0000 </r>
       <r>   -0.8045    1.0000 </r>
       <r>   -0.1593    1.0000 </r>
       <r>   -0.0378    1.0000 </r>
       <r>    0.0462    1.0000 </r>
       <r>    0.1179    1.0000 </r>
       <r>    0.3353    1.0000 </r>
       <r>    4.5254    0.2101 </r>
       <r>    5.7166   -0.0000 </r>
       <r>    5.7659   -0.0000 </r>
       <r>    5.8660   -0.0000 </r>
       <r>    6.9769   -0.0000 </r>
       <r>    7.6759   -0.0000 </r>
       <r>    8.5850   -0.0000 </r>
       <r>    9.1296   -0.0000 </r>
       <r>    9.6932   -0.0000 </r>
       <r>    9.9779    0.0000 </r>
       <r>   11.5745    0.0000 </r>
      </set>
      <set comment="kpoint 8">
       <r>  -23.3536    1.0000 </r>
       <r>  -14.7324    1.0000 </r>
       <r>  -14.2424    1.0000 </r>
       <r>   -8.9191    1.0000 </r>
       <r>   -8.4653    1.0000 </r>
       <r>   -8.4295    1.0000 </r>
       <r>   -1.7368    1.0000 </r>
       <r>   -0.7453    1.0000 </r>
       <r>   -0.2190    1.0000 </r>
       <r>   -0.2005    1.0000 </r>
       <r>    0.1699    1.0000 </r>
       <r>    0.2519    1.0000 </r>
       <r>    0.5300    1.0000 </r>
       <r>    4.1534    1.0281 </r>
       <r>    5.6418   -0.0000 </r>
       <r>    5.7450   -0.0000 </r>
       <r>    6.4639   -0.0000 </r>
       <r>    6.7638   -0.0000 </r>
       <r>    7.9204   -0.0000 </r>
       <r>    8.1553   -0.0000 </r>
       <r>    9.4213   -0.0000 </r>
       <r>    9.8372   -0.0000 </r>
       <r>   10.2437    0.0000 </r>
       <r>   11.9700    0.0000 </r>
      </set>
      <set comment="kpoint 9">
       <r>  -23.3099    1.0000 </r>
       <r>  -14.6976    1.0000 </r>
       <r>  -14.3224    1.0000 </r>
       <r>   -9.1611    1.0000 </r>
       <r>   -8.5277    1.0000 </r>
       <r>   -8.3640    1.0000 </r>
       <r>   -1.7325    1.0000 </r>
       <r>   -1.0319    1.0000 </r>
       <r>   -0.6433    1.0000 </r>
       <r>   -0.0110    1.0000 </r>
       <r>    0.2992    1.0000 </r>
       <r>    0.8081    1.0000 </r>
       <r>    1.2563    1.0000 </r>
       <r>    3.6642    1.0000 </r>
       <r>    5.0572   -0.0001 </r>
       <r>    5.5655   -0.0000 </r>
       <r>    5.7734   -0.0000 </r>
       <r>    7.3148   -0.0000 </r>
       <r>    7.8596   -0.0000 </r>
       <r>    8.8763   -0.0000 </r>
       <r>    9.5233   -0.0000 </r>
       <r>   10.9842    0.0000 </r>
       <r>   11.1133    0.0000 </r>
       <r>   12.8926    0.0000 </r>
      </set>
      <set comment="kpoint 10">
       <r>  -23.3979    1.0000 </r>
       <r>  -14.6505    1.0000 </r>
       <r>  -14.3308    1.0000 </r>
       <r>   -8.6573    1.0000 </r>
       <r>   -8.5620    1.0000 </r>
       <r>   -8.4108    1.0000 </r>
       <r>   -1.4698    1.0000 </r>
       <r>   -0.8764    1.0000 </r>
       <r>   -0.5929    1.0000 </r>
       <r>   -0.0360    1.0000 </r>
       <r>    0.0607    1.0000 </r>
       <r>    0.1279    1.0000 </r>
       <r>    1.1830    1.0000 </r>
       <r>    4.8317   -0.0109 </r>
       <r>    5.0312   -0.0002 </r>
       <r>    5.1498   -0.0000 </r>
       <r>    6.7476   -0.0000 </r>
       <r>    7.3470   -0.0000 </r>
       <r>    7.7221   -0.0000 </r>
       <r>    8.2062   -0.0000 </r>
       <r>    8.6288   -0.0000 </r>
       <r>    9.8644   -0.0000 </r>
       <r>   10.4675    0.0000 </r>
       <r>   11.4156    0.0000 </r>
      </set>
      <set comment="kpoint 11">
       <r>  -23.3693    1.0000 </r>
       <r>  -14.7263    1.0000 </r>
       <r>  -14.3008    1.0000 </r>
       <r>   -8.8175    1.0000 </r>
       <r>   -8.6034    1.0000 </r>
       <r>   -8.2965    1.0000 </r>
       <r>   -1.3010    1.0000 </r>
       <r>   -1.0912    1.0000 </r>
       <r>   -0.7024    1.0000 </r>
       <r>    0.0071    1.0000 </r>
       <r>    0.0392    1.0000 </r>
       <r>    0.4388    1.0000 </r>
       <r>    1.1356    1.0000 </r>
       <r>    4.5793    0.0635 </r>
       <r>    4.9352   -0.0017 </r>
       <r>    5.2541   -0.0000 </r>
       <r>    6.8258   -0.0000 </r>
       <r>    7.5118   -0.0000 </r>
       <r>    7.8311   -0.0000 </r>
       <r>    7.9080   -0.0000 </r>
       <r>    8.9565   -0.0000 </r>
       <r>    9.8474   -0.0000 </r>
       <r>   10.5782    0.0000 </r>
       <r>   11.9697    0.0000 </r>
      </set>
      <set comment="kpoint 12">
       <r>  -23.3221    1.0000 </r>
       <r>  -14.8541    1.0000 </r>
       <r>  -14.2508    1.0000 </r>
       <r>   -8.7869    1.0000 </r>
       <r>   -8.6742    1.0000 </r>
       <r>   -8.4184    1.0000 </r>
       <r>   -1.2377    1.0000 </r>
       <r>   -1.0255    1.0000 </r>
       <r>   -0.8108    1.0000 </r>
       <r>   -0.0309    1.0000 </r>
       <r>    0.1096    1.0000 </r>
       <r>    0.9060    1.0000 </r>
       <r>    0.9669    1.0000 </r>
       <r>    4.4253    0.6102 </r>
       <r>    4.7979   -0.0172 </r>
       <r>    5.2398   -0.0000 </r>
       <r>    5.3879   -0.0000 </r>
       <r>    7.6072   -0.0000 </r>
       <r>    8.7260   -0.0000 </r>
       <r>    8.7591   -0.0000 </r>
       <r>    9.6684   -0.0000 </r>
       <r>   10.3130    0.0000 </r>
       <r>   10.3535    0.0000 </r>
       <r>   13.1737    0.0000 </r>
      </set>
      <set comment="kpoint 13">
       <r>  -23.3575    1.0000 </r>
       <r>  -14.6382    1.0000 </r>
       <r>  -14.2586    1.0000 </r>
       <r>   -8.6781    1.0000 </r>
       <r>   -8.5334    1.0000 </r>
       <r>   -8.3291    1.0000 </r>
       <r>   -2.0089    1.0000 </r>
       <r>   -1.1400    1.0000 </r>
       <r>   -0.9722    1.0000 </r>
       <r>   -0.4037    1.0000 </r>
       <r>   -0.3570    1.0000 </r>
       <r>   -0.1768    1.0000 </r>
       <r>    1.1226    1.0000 </r>
       <r>    4.9924   -0.0004 </r>
       <r>    5.7798   -0.0000 </r>
       <r>    5.8224   -0.0000 </r>
       <r>    6.7103   -0.0000 </r>
       <r>    7.8603   -0.0000 </r>
       <r>    8.0781   -0.0000 </r>
       <r>    9.0127   -0.0000 </r>
       <r>    9.3261   -0.0000 </r>
       <r>    9.9506    0.0000 </r>
       <r>   10.3904    0.0000 </r>
       <r>   11.8777    0.0000 </r>
      </set>
      <set comment="kpoint 14">
       <r>  -23.3326    1.0000 </r>
       <r>  -14.6025    1.0000 </r>
       <r>  -14.2740    1.0000 </r>
       <r>   -8.8828    1.0000 </r>
       <r>   -8.6793    1.0000 </r>
       <r>   -8.3373    1.0000 </r>
       <r>   -1.8832    1.0000 </r>
       <r>   -1.1048    1.0000 </r>
       <r>   -0.9040    1.0000 </r>
       <r>   -0.3236    1.0000 </r>
       <r>   -0.1620    1.0000 </r>
       <r>    0.0673    1.0000 </r>
       <r>    1.1043    1.0000 </r>
       <r>    4.6993   -0.0354 </r>
       <r>    5.6662   -0.0000 </r>
       <r>    5.8879   -0.0000 </r>
       <r>    6.9851   -0.0000 </r>
       <r>    7.3200   -0.0000 </r>
       <r>    8.0631   -0.0000 </r>
       <r>    8.8751   -0.0000 </r>
       <r>    9.4032   -0.0000 </r>
       <r>    9.9696    0.0000 </r>
       <r>   10.6925    0.0000 </r>
       <r>   12.2888    0.0000 </r>
      </set>
      <set comment="kpoint 15">
       <r>  -23.2915    1.0000 </r>
       <r>  -14.5656    1.0000 </r>
       <r>  -14.2806    1.0000 </r>
       <r>   -9.1183    1.0000 </r>
       <r>   -8.7833    1.0000 </r>
       <r>   -8.5624    1.0000 </r>
       <r>   -1.7477    1.0000 </r>
       <r>   -0.8603    1.0000 </r>
       <r>   -0.6688    1.0000 </r>
       <r>   -0.2708    1.0000 </r>
       <r>   -0.0867    1.0000 </r>
       <r>    0.6101    1.0000 </r>
       <r>    1.0974    1.0000 </r>
       <r>    4.4375    0.5592 </r>
       <r>    5.2019   -0.0000 </r>
       <r>    5.5926   -0.0000 </r>
       <r>    5.9763   -0.0000 </r>
       <r>    8.0587   -0.0000 </r>
       <r>    8.4158   -0.0000 </r>
       <r>    9.1977   -0.0000 </r>
       <r>    9.4785   -0.0000 </r>
       <r>   10.0470    0.0000 </r>
       <r>   11.0968    0.0000 </r>
       <r>   13.2524    0.0000 </r>
      </set>
      <set comment="kpoint 16">
       <r>  -23.3203    1.0000 </r>
       <r>  -14.4272    1.0000 </r>
       <r>  -14.3775    1.0000 </r>
       <r>   -8.5703    1.0000 </r>
       <r>   -8.5338    1.0000 </r>
       <r>   -8.2351    1.0000 </r>
       <r>   -2.6649    1.0000 </r>
       <r>   -1.7839    1.0000 </r>
       <r>   -1.4231    1.0000 </r>
       <r>   -0.8696    1.0000 </r>
       <r>   -0.6384    1.0000 </r>
       <r>   -0.6103    1.0000 </r>
       <r>    1.5738    1.0000 </r>
       <r>    5.7571   -0.0000 </r>
       <r>    5.8272   -0.0000 </r>
       <r>    6.1717   -0.0000 </r>
       <r>    8.3858   -0.0000 </r>
       <r>    8.6489   -0.0000 </r>
       <r>    9.3198   -0.0000 </r>
       <r>    9.8034   -0.0000 </r>
       <r>    9.9547    0.0000 </r>
       <r>   10.3260    0.0000 </r>
       <r>   11.1927    0.0000 </r>
       <r>   11.9218    0.0000 </r>
      </set>
      <set comment="kpoint 17">
       <r>  -23.2980    1.0000 </r>
       <r>  -14.3878    1.0000 </r>
       <r>  -14.3218    1.0000 </r>
       <r>   -8.8338    1.0000 </r>
       <r>   -8.7229    1.0000 </r>
       <r>   -8.4751    1.0000 </r>
       <r>   -2.4202    1.0000 </r>
       <r>   -1.4244    1.0000 </r>
       <r>   -1.3629    1.0000 </r>
       <r>   -0.7709    1.0000 </r>
       <r>   -0.3747    1.0000 </r>
       <r>   -0.2766    1.0000 </r>
       <r>    1.5957    1.0000 </r>
       <r>    5.5935   -0.0000 </r>
       <r>    5.7512   -0.0000 </r>
       <r>    6.2516   -0.0000 </r>
       <r>    7.0079   -0.0000 </r>
       <r>    8.8646   -0.0000 </r>
       <r>    9.1054   -0.0000 </r>
       <r>    9.6437   -0.0000 </r>
       <r>    9.6660   -0.0000 </r>
       <r>   10.6637    0.0000 </r>
       <r>   10.9277    0.0000 </r>
       <r>   12.4274    0.0000 </r>
      </set>
      <set comment="kpoint 18">
       <r>  -23.2614    1.0000 </r>
       <r>  -14.3236    1.0000 </r>
       <r>  -14.2262    1.0000 </r>
       <r>   -9.1117    1.0000 </r>
       <r>   -9.0201    1.0000 </r>
       <r>   -8.9370    1.0000 </r>
       <r>   -2.0049    1.0000 </r>
       <r>   -1.4195    1.0000 </r>
       <r>   -0.6352    1.0000 </r>
       <r>   -0.4997    1.0000 </r>
       <r>    0.0788    1.0000 </r>
       <r>    0.1041    1.0000 </r>
       <r>    1.5823    1.0000 </r>
       <r>    5.1116   -0.0000 </r>
       <r>    5.6379   -0.0000 </r>
       <r>    5.6471   -0.0000 </r>
       <r>    6.3706   -0.0000 </r>
       <r>    8.5862   -0.0000 </r>
       <r>    8.6531   -0.0000 </r>
       <r>    9.5717   -0.0000 </r>
       <r>    9.9751    0.0000 </r>
       <r>   10.6505    0.0000 </r>
       <r>   11.0208    0.0000 </r>
       <r>   13.1196    0.0000 </r>
      </set>
     </set>
    </set>
   </array>
  </eigenvalues>
  <separator name="orbital magnetization" >
   <v name="MAGDIPOLOUT">      0.00000000      0.00000000      0.00000000</v>
  </separator>
 </calculation>
 <structure name="finalpos" >
  <crystal>
   <varray name="basis" >
    <v>       3.99835856      -0.00000000      -0.00000000 </v>
    <v>       0.00000000       4.05791851       0.00000000 </v>
    <v>       0.00000000      -0.00000000       4.05791851 </v>
   </varray>
   <i name="volume">     65.83978150 </i>
   <varray name="rec_basis" >
    <v>       0.25010263       0.00000000      -0.00000000 </v>
    <v>       0.00000000       0.24643176       0.00000000 </v>
    <v>       0.00000000      -0.00000000       0.24643176 </v>
   </varray>
  </crystal>
  <varray name="positions" >
   <v>      -0.00000000       0.00000000      -0.00000000 </v>
   <v>       0.50000000       0.50000000       0.50000000 </v>
   <v>       0.50000000      -0.00000000       0.50000000 </v>
   <v>       0.50000000       0.50000000       0.00000000 </v>
   <v>      -0.00000000       0.50000000       0.50000000 </v>
  </varray>
 </structure>
</modeling>
