unknown system                          
           1
     4.021438    0.000000    0.000000
     0.000000    4.060692   -0.000000
     0.000000    0.000000    4.060692
   Ba   Ti   O    H 
   1   1   2   1
Direct configuration=     1
   0.00000000  0.00000000  0.00000000
   0.50000000  0.50000000  0.50000000
   0.50000000  0.00000000  0.50000000
   0.50000000  0.50000000  0.00000000
   0.00000000  0.50000000  0.50000000
unknown system                          
           1
     4.009745    0.000000    0.000000
     0.000000    4.053866   -0.000000
     0.000000    0.000000    4.053866
   Ba   Ti   O    H 
   1   1   2   1
Direct configuration=     2
   0.00000000  0.00000000  0.00000000
   0.50000000  0.50000000  0.50000000
   0.50000000  0.00000000  0.50000000
   0.50000000  0.50000000  0.00000000
   0.00000000  0.50000000  0.50000000
unknown system                          
           1
     3.998291    0.000000   -0.000000
     0.000000    4.057821   -0.000000
     0.000000    0.000000    4.057821
   Ba   Ti   O    H 
   1   1   2   1
Direct configuration=     3
  -0.00000000 -0.00000000 -0.00000000
   0.50000000  0.50000000  0.50000000
   0.50000000  0.00000000  0.50000000
   0.50000000  0.50000000 -0.00000000
  -0.00000000  0.50000000  0.50000000
unknown system                          
           1
     3.998354    0.000000   -0.000000
    -0.000000    4.057914   -0.000000
     0.000000    0.000000    4.057914
   Ba   Ti   O    H 
   1   1   2   1
Direct configuration=     4
  -0.00000000 -0.00000000 -0.00000000
   0.50000000  0.50000000  0.50000000
   0.50000000  0.00000000  0.50000000
   0.50000000  0.50000000 -0.00000000
  -0.00000000  0.50000000  0.50000000
unknown system                          
           1
     3.998394    0.000000   -0.000000
     0.000000    4.057963   -0.000000
    -0.000000    0.000000    4.057963
   Ba   Ti   O    H 
   1   1   2   1
Direct configuration=     5
  -0.00000000 -0.00000000 -0.00000000
   0.50000000  0.50000000  0.50000000
   0.50000000  0.00000000  0.50000000
   0.50000000  0.50000000 -0.00000000
  -0.00000000  0.50000000  0.50000000
unknown system                          
           1
     3.998382    0.000000    0.000000
    -0.000000    4.057947   -0.000000
     0.000000    0.000000    4.057947
   Ba   Ti   O    H 
   1   1   2   1
Direct configuration=     6
  -0.00000000 -0.00000000 -0.00000000
   0.50000000  0.50000000  0.50000000
   0.50000000  0.00000000  0.50000000
   0.50000000  0.50000000 -0.00000000
  -0.00000000  0.50000000  0.50000000
unknown system                          
           1
     3.998409    0.000000    0.000000
    -0.000000    4.057962   -0.000000
     0.000000    0.000000    4.057962
   Ba   Ti   O    H 
   1   1   2   1
Direct configuration=     7
  -0.00000000 -0.00000000 -0.00000000
   0.50000000  0.50000000  0.50000000
   0.50000000  0.00000000  0.50000000
   0.50000000  0.50000000 -0.00000000
  -0.00000000  0.50000000  0.50000000
unknown system                          
           1
     3.998389    0.000000    0.000000
     0.000000    4.057965   -0.000000
    -0.000000    0.000000    4.057965
   Ba   Ti   O    H 
   1   1   2   1
Direct configuration=     8
  -0.00000000 -0.00000000 -0.00000000
   0.50000000  0.50000000  0.50000000
   0.50000000  0.00000000  0.50000000
   0.50000000  0.50000000 -0.00000000
  -0.00000000  0.50000000  0.50000000
unknown system                          
           1
     3.998453   -0.000000    0.000000
    -0.000000    4.057888    0.000000
     0.000000   -0.000000    4.057888
   Ba   Ti   O    H 
   1   1   2   1
Direct configuration=     9
  -0.00000000 -0.00000000 -0.00000000
   0.50000000  0.50000000  0.50000000
   0.50000000  0.00000000  0.50000000
   0.50000000  0.50000000 -0.00000000
  -0.00000000  0.50000000  0.50000000
unknown system                          
           1
     3.998489   -0.000000    0.000000
    -0.000000    4.057850    0.000000
     0.000000   -0.000000    4.057850
   Ba   Ti   O    H 
   1   1   2   1
Direct configuration=    10
  -0.00000000 -0.00000000  0.00000000
   0.50000000  0.50000000  0.50000000
   0.50000000  0.00000000  0.50000000
   0.50000000  0.50000000  0.00000000
  -0.00000000  0.50000000  0.50000000
unknown system                          
           1
     3.998483   -0.000000    0.000000
    -0.000000    4.057853    0.000000
     0.000000   -0.000000    4.057853
   Ba   Ti   O    H 
   1   1   2   1
Direct configuration=    11
  -0.00000000 -0.00000000  0.00000000
   0.50000000  0.50000000  0.50000000
   0.50000000  0.00000000  0.50000000
   0.50000000  0.50000000  0.00000000
  -0.00000000  0.50000000  0.50000000
unknown system                          
           1
     3.998404    0.000000   -0.000000
     0.000000    4.057940   -0.000000
     0.000000    0.000000    4.057940
   Ba   Ti   O    H 
   1   1   2   1
Direct configuration=    12
  -0.00000000 -0.00000000  0.00000000
   0.50000000  0.50000000  0.50000000
   0.50000000  0.00000000  0.50000000
   0.50000000  0.50000000  0.00000000
  -0.00000000  0.50000000  0.50000000
unknown system                          
           1
     3.998711   -0.000000    0.000000
    -0.000000    4.057601    0.000000
     0.000000   -0.000000    4.057601
   Ba   Ti   O    H 
   1   1   2   1
Direct configuration=    13
   0.00000000 -0.00000000 -0.00000000
   0.50000000  0.50000000  0.50000000
   0.50000000  0.00000000  0.50000000
   0.50000000  0.50000000 -0.00000000
   0.00000000  0.50000000  0.50000000
unknown system                          
           1
     3.998707   -0.000000    0.000000
    -0.000000    4.057604    0.000000
     0.000000   -0.000000    4.057604
   Ba   Ti   O    H 
   1   1   2   1
Direct configuration=    14
  -0.00000000  0.00000000  0.00000000
   0.50000000  0.50000000  0.50000000
   0.50000000 -0.00000000  0.50000000
   0.50000000  0.50000000  0.00000000
  -0.00000000  0.50000000  0.50000000
unknown system                          
           1
     3.998364   -0.000000   -0.000000
    -0.000000    4.057738    0.000000
     0.000000   -0.000000    4.057738
   Ba   Ti   O    H 
   1   1   2   1
Direct configuration=    15
  -0.00000000  0.00000000  0.00000000
   0.50000000  0.50000000  0.50000000
   0.50000000 -0.00000000  0.50000000
   0.50000000  0.50000000  0.00000000
  -0.00000000  0.50000000  0.50000000
unknown system                          
           1
     3.998144   -0.000000   -0.000000
     0.000000    4.057847    0.000000
     0.000000   -0.000000    4.057847
   Ba   Ti   O    H 
   1   1   2   1
Direct configuration=    16
  -0.00000000  0.00000000  0.00000000
   0.50000000  0.50000000  0.50000000
   0.50000000 -0.00000000  0.50000000
   0.50000000  0.50000000  0.00000000
  -0.00000000  0.50000000  0.50000000
unknown system                          
           1
     3.997524   -0.000000   -0.000000
     0.000000    4.058382   -0.000000
     0.000000   -0.000000    4.058382
   Ba   Ti   O    H 
   1   1   2   1
Direct configuration=    17
  -0.00000000  0.00000000 -0.00000000
   0.50000000  0.50000000  0.50000000
   0.50000000 -0.00000000  0.50000000
   0.50000000  0.50000000 -0.00000000
  -0.00000000  0.50000000  0.50000000
unknown system                          
           1
     3.999094    0.000000    0.000000
    -0.000000    4.057503    0.000000
     0.000000   -0.000000    4.057503
   Ba   Ti   O    H 
   1   1   2   1
Direct configuration=    18
  -0.00000000  0.00000000 -0.00000000
   0.50000000  0.50000000  0.50000000
   0.50000000 -0.00000000  0.50000000
   0.50000000  0.50000000 -0.00000000
  -0.00000000  0.50000000  0.50000000
unknown system                          
           1
     3.998345   -0.000000   -0.000000
    -0.000000    4.057919    0.000000
     0.000000   -0.000000    4.057919
   Ba   Ti   O    H 
   1   1   2   1
Direct configuration=    19
  -0.00000000  0.00000000  0.00000000
   0.50000000  0.50000000  0.50000000
   0.50000000 -0.00000000  0.50000000
   0.50000000  0.50000000  0.00000000
  -0.00000000  0.50000000  0.50000000
unknown system                          
           1
     3.998333   -0.000000   -0.000000
    -0.000000    4.057899    0.000000
     0.000000   -0.000000    4.057899
   Ba   Ti   O    H 
   1   1   2   1
Direct configuration=    20
  -0.00000000  0.00000000 -0.00000000
   0.50000000  0.50000000  0.50000000
   0.50000000 -0.00000000  0.50000000
   0.50000000  0.50000000  0.00000000
  -0.00000000  0.50000000  0.50000000
unknown system                          
           1
     3.998302   -0.000000   -0.000000
    -0.000000    4.057895    0.000000
     0.000000   -0.000000    4.057895
   Ba   Ti   O    H 
   1   1   2   1
Direct configuration=    21
  -0.00000000  0.00000000 -0.00000000
   0.50000000  0.50000000  0.50000000
   0.50000000 -0.00000000  0.50000000
   0.50000000  0.50000000  0.00000000
  -0.00000000  0.50000000  0.50000000
unknown system                          
           1
     3.998309   -0.000000   -0.000000
    -0.000000    4.057893    0.000000
     0.000000   -0.000000    4.057893
   Ba   Ti   O    H 
   1   1   2   1
Direct configuration=    22
  -0.00000000  0.00000000 -0.00000000
   0.50000000  0.50000000  0.50000000
   0.50000000 -0.00000000  0.50000000
   0.50000000  0.50000000  0.00000000
  -0.00000000  0.50000000  0.50000000
unknown system                          
           1
     3.998374   -0.000000   -0.000000
     0.000000    4.057903    0.000000
     0.000000   -0.000000    4.057903
   Ba   Ti   O    H 
   1   1   2   1
Direct configuration=    23
  -0.00000000  0.00000000 -0.00000000
   0.50000000  0.50000000  0.50000000
   0.50000000 -0.00000000  0.50000000
   0.50000000  0.50000000  0.00000000
  -0.00000000  0.50000000  0.50000000
unknown system                          
           1
     3.998343   -0.000000   -0.000000
     0.000000    4.057900    0.000000
     0.000000   -0.000000    4.057900
   Ba   Ti   O    H 
   1   1   2   1
Direct configuration=    24
  -0.00000000  0.00000000 -0.00000000
   0.50000000  0.50000000  0.50000000
   0.50000000 -0.00000000  0.50000000
   0.50000000  0.50000000  0.00000000
  -0.00000000  0.50000000  0.50000000
unknown system                          
           1
     3.998359   -0.000000   -0.000000
     0.000000    4.057919    0.000000
     0.000000   -0.000000    4.057919
   Ba   Ti   O    H 
   1   1   2   1
Direct configuration=    25
  -0.00000000  0.00000000 -0.00000000
   0.50000000  0.50000000  0.50000000
   0.50000000 -0.00000000  0.50000000
   0.50000000  0.50000000  0.00000000
  -0.00000000  0.50000000  0.50000000
unknown system                          
           1
     3.998359   -0.000000   -0.000000
     0.000000    4.057919    0.000000
     0.000000   -0.000000    4.057919
   Ba   Ti   O    H 
   1   1   2   1
Direct configuration=    26
  -0.00000000  0.00000000 -0.00000000
   0.50000000  0.50000000  0.50000000
   0.50000000 -0.00000000  0.50000000
   0.50000000  0.50000000  0.00000000
  -0.00000000  0.50000000  0.50000000
