       N       E                     dE             d eps       ncg     rms          rms(c)
DAV:   1     0.120994696455E+03    0.12099E+03   -0.12148E+04  1152   0.765E+02
DAV:   2    -0.344857245306E+02   -0.15548E+03   -0.14171E+03  1488   0.176E+02
DAV:   3    -0.412709382296E+02   -0.67852E+01   -0.67582E+01  1344   0.406E+01
DAV:   4    -0.413220002838E+02   -0.51062E-01   -0.51054E-01  1584   0.355E+00
DAV:   5    -0.413227127852E+02   -0.71250E-03   -0.71250E-03  1296   0.386E-01    0.233E+01
DAV:   6    -0.347226480459E+02    0.66001E+01   -0.25617E+01  1472   0.260E+01    0.986E+00
DAV:   7    -0.339315720749E+02    0.79108E+00   -0.98131E+00  1376   0.148E+01    0.769E+00
DAV:   8    -0.337833381592E+02    0.14823E+00   -0.17365E+00  1376   0.715E+00    0.219E+00
DAV:   9    -0.336898876835E+02    0.93450E-01   -0.32751E-01  1392   0.302E+00    0.302E-01
DAV:  10    -0.336904517238E+02   -0.56404E-03   -0.15733E-02  1584   0.627E-01    0.146E-01
DAV:  11    -0.336907493943E+02   -0.29767E-03   -0.23575E-03  1280   0.263E-01    0.844E-02
DAV:  12    -0.336907458095E+02    0.35848E-05   -0.86553E-04  1552   0.147E-01    0.391E-02
DAV:  13    -0.336907290575E+02    0.16752E-04   -0.13335E-04  1280   0.625E-02    0.147E-02
DAV:  14    -0.336907284691E+02    0.58841E-06   -0.76981E-06  1568   0.140E-02
   1 F= -.33690728E+02 E0= -.33689164E+02  d E =-.336907E+02
       N       E                     dE             d eps       ncg     rms          rms(c)
DAV:   1    -0.337111932938E+02   -0.20464E-01   -0.62614E-01  1376   0.397E+00    0.103E+00
DAV:   2    -0.337009778145E+02    0.10215E-01   -0.87958E-02  1520   0.153E+00    0.791E-01
DAV:   3    -0.336958352003E+02    0.51426E-02   -0.19686E-02  1376   0.727E-01    0.344E-01
DAV:   4    -0.336945561495E+02    0.12791E-02   -0.28365E-03  1792   0.242E-01    0.597E-02
DAV:   5    -0.336945714579E+02   -0.15308E-04   -0.98383E-05  1408   0.474E-02    0.280E-02
DAV:   6    -0.336945724283E+02   -0.97043E-06   -0.13981E-05  1424   0.216E-02    0.663E-03
DAV:   7    -0.336945720244E+02    0.40396E-06   -0.11375E-06  1504   0.558E-03
   2 F= -.33694572E+02 E0= -.33693155E+02  d E =-.384356E-02
       N       E                     dE             d eps       ncg     rms          rms(c)
DAV:   1    -0.337019914057E+02   -0.74190E-02   -0.11735E-01  1584   0.183E+00    0.630E-01
DAV:   2    -0.336975239485E+02    0.44675E-02   -0.31321E-02  1520   0.857E-01    0.337E-01
DAV:   3    -0.336958913631E+02    0.16326E-02   -0.76568E-03  1472   0.451E-01    0.104E-01
DAV:   4    -0.336956349194E+02    0.25644E-03   -0.57981E-04  1792   0.121E-01    0.412E-02
DAV:   5    -0.336956332073E+02    0.17121E-05   -0.81125E-05  1888   0.398E-02    0.140E-02
DAV:   6    -0.336956456888E+02   -0.12481E-04   -0.46787E-06  1472   0.113E-02    0.528E-03
DAV:   7    -0.336956469346E+02   -0.12458E-05   -0.13766E-06  1456   0.473E-03    0.141E-03
DAV:   8    -0.336956470817E+02   -0.14710E-06   -0.13458E-07   656   0.203E-03
   3 F= -.33695647E+02 E0= -.33694199E+02  d E =-.107506E-02
       N       E                     dE             d eps       ncg     rms          rms(c)
DAV:   1    -0.336968012950E+02   -0.11544E-02   -0.64803E-02  1344   0.125E+00    0.203E-01
DAV:   2    -0.336961614422E+02    0.63985E-03   -0.10827E-03  1360   0.190E-01    0.124E-01
DAV:   3    -0.336959541526E+02    0.20729E-03   -0.18318E-04  1472   0.686E-02    0.412E-02
DAV:   4    -0.336959341286E+02    0.20024E-04   -0.44481E-05  1600   0.299E-02    0.965E-03
DAV:   5    -0.336959339977E+02    0.13094E-06   -0.46121E-06  1296   0.121E-02
   4 F= -.33695934E+02 E0= -.33694524E+02  d E =-.286916E-03
       N       E                     dE             d eps       ncg     rms          rms(c)
DAV:   1    -0.336959358122E+02   -0.16836E-05   -0.31357E-05  1440   0.286E-02    0.904E-03
DAV:   2    -0.336959349549E+02    0.85735E-06   -0.73653E-06  1472   0.133E-02
   5 F= -.33695935E+02 E0= -.33694529E+02  d E =-.957192E-06
