 vasp.5.4.1 05Feb16 (build Nov 07 2016 16:53:41) complex                        
  
 executed on           IFC91_ompi date 2024.10.10  17:06:37
 running on   16 total cores
 distrk:  each k-point on   16 cores,    1 groups
 distr:  one band on NCORES_PER_BAND=   1 cores,   16 groups


--------------------------------------------------------------------------------------------------------


 INCAR:
 POTCAR:    PAW_PBE Ba_sv 06Sep2000               
 POTCAR:    PAW_PBE Ti 08Apr2002                  
 POTCAR:    PAW_PBE O 08Apr2002                   
 POTCAR:    PAW_PBE H 15Jun2001                   

 ----------------------------------------------------------------------------- 
|                                                                             |
|           W    W    AA    RRRRR   N    N  II  N    N   GGGG   !!!           |
|           W    W   A  A   R    R  NN   N  II  NN   N  G    G  !!!           |
|           W    W  A    A  R    R  N N  N  II  N N  N  G       !!!           |
|           W WW W  AAAAAA  RRRRR   N  N N  II  N  N N  G  GGG   !            |
|           WW  WW  A    A  R   R   N   NN  II  N   NN  G    G                |
|           W    W  A    A  R    R  N    N  II  N    N   GGGG   !!!           |
|                                                                             |
|      For optimal performance we recommend to set                            |
|        NCORE= 4 - approx SQRT( number of cores)                             |
|      NCORE specifies how many cores store one orbital (NPAR=cpu/NCORE).     |
|      This setting can  greatly improve the performance of VASP for DFT.     |
|      The default, NPAR=number of cores might be grossly inefficient         |
|      on modern multi-core architectures or massively parallel machines.     |
|      Do your own testing !!!!                                               |
|      Unfortunately you need to use the default for GW and RPA calculations. |
|      (for HF NCORE is supported but not extensively tested yet)             |
|                                                                             |
 ----------------------------------------------------------------------------- 

 POTCAR:    PAW_PBE Ba_sv 06Sep2000               
   SHA256 =  db99e82e473f9273fc04f241d4a23dc413358649e2d1724098d22351b75b003b Ba
   COPYR  = (c) Copyright 06Sep2000 Georg Kresse                                
   COPYR  = This file is part of the software VASP. Any use, copying, and all ot
   COPYR  = If you do not have a valid VASP license, you may not use, copy or di
   VRHFIN =Ba: 5s5p6s                                                           
   LEXCH  = PE                                                                  
   EATOM  =   700.8560 eV,   51.5115 Ry                                         
                                                                                
   TITEL  = PAW_PBE Ba_sv 06Sep2000                                             
   LULTRA =        F    use ultrasoft PP ?                                      
   IUNSCR =        1    unscreen: 0-lin 1-nonlin 2-no                           
   RPACOR =    2.400    partial core radius                                     
   POMASS =  137.327; ZVAL   =   10.000    mass and valenz                      
   RCORE  =    2.800    outmost cutoff radius                                   
   RWIGS  =    3.740; RWIGS  =    1.979    wigner-seitz radius (au A)           
   ENMAX  =  187.181; ENMIN  =  140.386 eV                                      
   RCLOC  =    2.516    cutoff for local pot                                    
   LCOR   =        T    correct aug charges                                     
   LPAW   =        T    paw PP                                                  
   EAUG   =  351.165                                                            
   DEXC   =    0.000                                                            
   RMAX   =    2.865    core radius for proj-oper                               
   RAUG   =    1.300    factor for augmentation sphere                          
   RDEP   =    2.976    radius for radial grids                                 
   RDEPT  =    2.289    core radius for aug-charge                              
                                                                                
   Atomic configuration                                                         
   13 entries                                                                   
     n  l   j            E        occ.                                          
     1  0  0.50    -37249.5946   2.0000                                         
     2  0  0.50     -5887.1925   2.0000                                         
     2  1  1.50     -5278.3977   6.0000                                         
     3  0  0.50     -1242.7293   2.0000                                         
     3  1  1.50     -1047.6609   6.0000                                         
     3  2  2.50      -764.6158  10.0000                                         
     4  0  0.50      -243.8228   2.0000                                         
     4  1  1.50      -180.9218   6.0000                                         
     4  2  2.50       -89.6477  10.0000                                         
     5  0  0.50       -33.6549   2.0000                                         
     6  0  0.50        -3.2247   1.9900                                         
     5  1  1.50       -18.7193   6.0000                                         
     5  2  2.50        -2.0115   0.0100                                         
   Description                                                                  
     l       E           TYP  RCUT    TYP  RCUT                                 
     0    -33.6549039     23  2.800                                             
     0     -3.2246942     23  2.800                                             
     1    -18.7193050     23  2.700                                             
     1     27.2116520     23  2.700                                             
     2     -2.0115002     23  2.700                                             
     2      0.3057420     23  2.700                                             
  local pseudopotential read in
  partial core-charges read in
  partial kinetic energy density read in
  atomic valenz-charges read in
  non local Contribution for L=           0  read in
    real space projection operators read in
  non local Contribution for L=           0  read in
    real space projection operators read in
  non local Contribution for L=           1  read in
    real space projection operators read in
  non local Contribution for L=           1  read in
    real space projection operators read in
  non local Contribution for L=           2  read in
    real space projection operators read in
  non local Contribution for L=           2  read in
    real space projection operators read in
    PAW grid and wavefunctions read in
 
   number of l-projection  operators is LMAX  =           6
   number of lm-projection operators is LMMAX =          18
 
 POTCAR:    PAW_PBE Ti 08Apr2002                  
   SHA256 =  f8e8f1d080d9e9b45e792f1068744b07aba8441d1e7ce11486a5d4c0f5a1479e Ti
   COPYR  = (c) Copyright 08Apr2002 Georg Kresse                                
   COPYR  = This file is part of the software VASP. Any use, copying, and all ot
   COPYR  = If you do not have a valid VASP license, you may not use, copy or di
   VRHFIN =Ti: d3 s1                                                            
   LEXCH  = PE                                                                  
   EATOM  =    94.7928 eV,    6.9671 Ry                                         
                                                                                
   TITEL  = PAW_PBE Ti 08Apr2002                                                
   LULTRA =        F    use ultrasoft PP ?                                      
   IUNSCR =        1    unscreen: 0-lin 1-nonlin 2-no                           
   RPACOR =    2.200    partial core radius                                     
   POMASS =   47.880; ZVAL   =    4.000    mass and valenz                      
   RCORE  =    2.800    outmost cutoff radius                                   
   RWIGS  =    2.500; RWIGS  =    1.323    wigner-seitz radius (au A)           
   ENMAX  =  178.330; ENMIN  =  133.747 eV                                      
   RCLOC  =    2.215    cutoff for local pot                                    
   LCOR   =        T    correct aug charges                                     
   LPAW   =        T    paw PP                                                  
   EAUG   =  328.883                                                            
   DEXC   =    0.000                                                            
   RMAX   =    2.868    core radius for proj-oper                               
   RAUG   =    1.300    factor for augmentation sphere                          
   RDEP   =    2.885    radius for radial grids                                 
   RDEPT  =    2.320    core radius for aug-charge                              
                                                                                
   Atomic configuration                                                         
    9 entries                                                                   
     n  l   j            E        occ.                                          
     1  0  0.50     -4865.3608   2.0000                                         
     2  0  0.50      -533.1367   2.0000                                         
     2  1  1.50      -440.5031   6.0000                                         
     3  0  0.50       -59.3186   2.0000                                         
     3  1  1.50       -35.7012   6.0000                                         
     3  2  2.50        -1.9157   3.0000                                         
     4  0  0.50        -3.7291   1.0000                                         
     4  1  1.50        -4.0817   0.0000                                         
     4  3  2.50        -1.3606   0.0000                                         
   Description                                                                  
     l       E           TYP  RCUT    TYP  RCUT                                 
     2     -1.9156924     23  2.800                                             
     2     -0.4062961     23  2.800                                             
     0     -3.7290832     23  2.800                                             
     0     20.4087390     23  2.800                                             
     1     -5.4423304     23  2.800                                             
  local pseudopotential read in
  partial core-charges read in
  partial kinetic energy density read in
  atomic valenz-charges read in
  non local Contribution for L=           2  read in
    real space projection operators read in
  non local Contribution for L=           2  read in
    real space projection operators read in
  non local Contribution for L=           0  read in
    real space projection operators read in
  non local Contribution for L=           0  read in
    real space projection operators read in
  non local Contribution for L=           1  read in
    real space projection operators read in
    PAW grid and wavefunctions read in
 
   number of l-projection  operators is LMAX  =           5
   number of lm-projection operators is LMMAX =          15
 
 POTCAR:    PAW_PBE O 08Apr2002                   
   SHA256 =  818f92134a0a090dccd8ba1447fa70422a3b330e708bb4f08108d8ae51209ddf O/
   COPYR  = (c) Copyright 08Apr2002 Georg Kresse                                
   COPYR  = This file is part of the software VASP. Any use, copying, and all ot
   COPYR  = If you do not have a valid VASP license, you may not use, copy or di
   VRHFIN =O: s2p4                                                              
   LEXCH  = PE                                                                  
   EATOM  =   432.3788 eV,   31.7789 Ry                                         
                                                                                
   TITEL  = PAW_PBE O 08Apr2002                                                 
   LULTRA =        F    use ultrasoft PP ?                                      
   IUNSCR =        1    unscreen: 0-lin 1-nonlin 2-no                           
   RPACOR =    1.200    partial core radius                                     
   POMASS =   16.000; ZVAL   =    6.000    mass and valenz                      
   RCORE  =    1.520    outmost cutoff radius                                   
   RWIGS  =    1.550; RWIGS  =    0.820    wigner-seitz radius (au A)           
   ENMAX  =  400.000; ENMIN  =  300.000 eV                                      
   ICORE  =        2    local potential                                         
   LCOR   =        T    correct aug charges                                     
   LPAW   =        T    paw PP                                                  
   EAUG   =  605.392                                                            
   DEXC   =    0.000                                                            
   RMAX   =    1.553    core radius for proj-oper                               
   RAUG   =    1.300    factor for augmentation sphere                          
   RDEP   =    1.550    radius for radial grids                                 
   RDEPT  =    1.329    core radius for aug-charge                              
                                                                                
   Atomic configuration                                                         
    4 entries                                                                   
     n  l   j            E        occ.                                          
     1  0  0.50      -514.6923   2.0000                                         
     2  0  0.50       -23.9615   2.0000                                         
     2  1  0.50        -9.0305   4.0000                                         
     3  2  1.50        -9.5241   0.0000                                         
   Description                                                                  
     l       E           TYP  RCUT    TYP  RCUT                                 
     0    -23.9615318     23  1.200                                             
     0     -9.5240782     23  1.200                                             
     1     -9.0304911     23  1.520                                             
     1      8.1634956     23  1.520                                             
     2     -9.5240782      7  1.500                                             
  local pseudopotential read in
  partial core-charges read in
  partial kinetic energy density read in
  kinetic energy density of atom read in
  atomic valenz-charges read in
  non local Contribution for L=           0  read in
    real space projection operators read in
  non local Contribution for L=           0  read in
    real space projection operators read in
  non local Contribution for L=           1  read in
    real space projection operators read in
  non local Contribution for L=           1  read in
    real space projection operators read in
    PAW grid and wavefunctions read in
 
   number of l-projection  operators is LMAX  =           4
   number of lm-projection operators is LMMAX =           8
 
 POTCAR:    PAW_PBE H 15Jun2001                   
   SHA256 =  030f79b5d3ab3cf0e668861823c8fb652ff669f3e15e46930bd03bfd63a607b6 H/
   COPYR  = (c) Copyright 15Jun2001 Georg Kresse                                
   COPYR  = This file is part of the software VASP. Any use, copying, and all ot
   COPYR  = If you do not have a valid VASP license, you may not use, copy or di
   VRHFIN =H: ultrasoft test                                                    
   LEXCH  = PE                                                                  
   EATOM  =    12.4884 eV,    0.9179 Ry                                         
                                                                                
   TITEL  = PAW_PBE H 15Jun2001                                                 
   LULTRA =        F    use ultrasoft PP ?                                      
   IUNSCR =        0    unscreen: 0-lin 1-nonlin 2-no                           
   RPACOR =    0.000    partial core radius                                     
   POMASS =    1.000; ZVAL   =    1.000    mass and valenz                      
   RCORE  =    1.100    outmost cutoff radius                                   
   RWIGS  =    0.700; RWIGS  =    0.370    wigner-seitz radius (au A)           
   ENMAX  =  250.000; ENMIN  =  200.000 eV                                      
   RCLOC  =    0.701    cutoff for local pot                                    
   LCOR   =        T    correct aug charges                                     
   LPAW   =        T    paw PP                                                  
   EAUG   =  400.000                                                            
   RMAX   =    1.123    core radius for proj-oper                               
   RAUG   =    1.200    factor for augmentation sphere                          
   RDEP   =    1.112    radius for radial grids                                 
   RDEPT  =    0.926    core radius for aug-charge                              
                                                                                
   Atomic configuration                                                         
    2 entries                                                                   
     n  l   j            E        occ.                                          
     1  0  0.50        -6.4927   1.0000                                         
     2  1  0.50        -3.4015   0.0000                                         
   Description                                                                  
     l       E           TYP  RCUT    TYP  RCUT                                 
     0     -6.4927494     23  1.100                                             
     0      6.8029130     23  1.100                                             
     1     -4.0817478     23  1.100                                             
  local pseudopotential read in
  atomic valenz-charges read in
  non local Contribution for L=           0  read in
    real space projection operators read in
  non local Contribution for L=           0  read in
    real space projection operators read in
  non local Contribution for L=           1  read in
    real space projection operators read in
    PAW grid and wavefunctions read in
 
   number of l-projection  operators is LMAX  =           3
   number of lm-projection operators is LMMAX =           5
 
  PAW_PBE Ba_sv 06Sep2000               :
 energy of atom  1       EATOM= -700.8560
 kinetic energy error for atom=    0.0005 (will be added to EATOM!!)
  PAW_PBE Ti 08Apr2002                  :
 energy of atom  2       EATOM=  -94.7928
 kinetic energy error for atom=    0.0002 (will be added to EATOM!!)
  PAW_PBE O 08Apr2002                   :
 energy of atom  3       EATOM= -432.3788
 kinetic energy error for atom=    0.0224 (will be added to EATOM!!)
  PAW_PBE H 15Jun2001                   :
 energy of atom  4       EATOM=  -12.4884
 kinetic energy error for atom=    0.0020 (will be added to EATOM!!)
 
 
 POSCAR: Ba Ti O  H                              
  positions in cartesian coordinates
  No initial velocities read in
 exchange correlation table for  LEXCH =        8
   RHO(1)=    0.500       N(1)  =     2000
   RHO(2)=  100.500       N(2)  =     4000
 


--------------------------------------------------------------------------------------------------------


 ion  position               nearest neighbor table
   1  0.000  0.000  0.000-   3 2.85   4 2.85   3 2.85   4 2.85   3 2.85   4 2.85   3 2.85   4 2.85
                             2 3.49   2 3.49   2 3.49   2 3.49   2 3.49   2 3.49   2 3.49   2 3.49
   2  0.500  0.500  0.500-   3 2.02   4 2.02   5 2.02   4 2.02   3 2.02   5 2.02   1 3.49   1 3.49
                             1 3.49   1 3.49   1 3.49   1 3.49   1 3.49   1 3.49
   3  0.500  0.000  0.500-   2 2.02   2 2.02   1 2.85   1 2.85   1 2.85   1 2.85
   4  0.500  0.500  0.000-   2 2.02   2 2.02   1 2.85   1 2.85   1 2.85   1 2.85
   5  0.000  0.500  0.500-   2 2.02   2 2.02
 
  LATTYP: Found a simple cubic cell.
 ALAT       =     4.0355830193
  
  Lattice vectors:
  
 A1 = (   4.0355830193,   0.0000000000,   0.0000000000)
 A2 = (   0.0000000000,   4.0355830193,   0.0000000000)
 A3 = (   0.0000000000,   0.0000000000,   4.0355830193)


Analysis of symmetry for initial positions (statically):
=====================================================================
 Subroutine PRICEL returns:
 Original cell was already a primitive cell.
 

 Routine SETGRP: Setting up the symmetry group for a 
 simple cubic supercell.


 Subroutine GETGRP returns: Found 16 space group operations
 (whereof 16 operations were pure point group operations)
 out of a pool of 48 trial point group operations.


The static configuration has the point symmetry D_4h.


Analysis of symmetry for dynamics (positions and initial velocities):
=====================================================================
 Subroutine PRICEL returns:
 Original cell was already a primitive cell.
 

 Routine SETGRP: Setting up the symmetry group for a 
 simple cubic supercell.


 Subroutine GETGRP returns: Found 16 space group operations
 (whereof 16 operations were pure point group operations)
 out of a pool of 48 trial point group operations.


The dynamic configuration has the point symmetry D_4h.


 Subroutine INISYM returns: Found 16 space group operations
 (whereof 16 operations are pure point group operations),
 and found     1 'primitive' translations

 
 
 KPOINTS: KPOINTS created by Atomic Simulation Env

Automatic generation of k-mesh.
Space group operators:
 irot       det(A)        alpha          n_x          n_y          n_z        tau_x        tau_y        tau_z
    1     1.000000     0.000000     1.000000     0.000000     0.000000     0.000000     0.000000     0.000000
    2    -1.000000     0.000000     1.000000     0.000000     0.000000     0.000000     0.000000     0.000000
    3     1.000000   180.000000     0.000000     0.707107     0.707107     0.000000     0.000000     0.000000
    4    -1.000000   180.000000     0.000000     0.707107     0.707107     0.000000     0.000000     0.000000
    5     1.000000   180.000000     0.000000     0.000000     1.000000     0.000000     0.000000     0.000000
    6    -1.000000   180.000000     0.000000     0.000000     1.000000     0.000000     0.000000     0.000000
    7     1.000000    90.000000    -1.000000     0.000000     0.000000     0.000000     0.000000     0.000000
    8    -1.000000    90.000000    -1.000000     0.000000     0.000000     0.000000     0.000000     0.000000
    9     1.000000   180.000000     1.000000     0.000000     0.000000     0.000000     0.000000     0.000000
   10    -1.000000   180.000000     1.000000     0.000000     0.000000     0.000000     0.000000     0.000000
   11     1.000000    90.000000     1.000000     0.000000     0.000000     0.000000     0.000000     0.000000
   12    -1.000000    90.000000     1.000000     0.000000     0.000000     0.000000     0.000000     0.000000
   13     1.000000   180.000000     0.000000     1.000000     0.000000     0.000000     0.000000     0.000000
   14    -1.000000   180.000000     0.000000     1.000000     0.000000     0.000000     0.000000     0.000000
   15     1.000000   180.000000     0.000000    -0.707107     0.707107     0.000000     0.000000     0.000000
   16    -1.000000   180.000000     0.000000    -0.707107     0.707107     0.000000     0.000000     0.000000
 
 Subroutine IBZKPT returns following result:
 ===========================================
 
 Found     18 irreducible k-points:
 
 Following reciprocal coordinates:
            Coordinates               Weight
  0.000000  0.000000  0.000000      1.000000
  0.200000  0.000000  0.000000      2.000000
  0.400000  0.000000  0.000000      2.000000
  0.000000  0.200000  0.000000      4.000000
  0.200000  0.200000  0.000000      8.000000
  0.400000  0.200000  0.000000      8.000000
  0.000000  0.400000  0.000000      4.000000
  0.200000  0.400000  0.000000      8.000000
  0.400000  0.400000  0.000000      8.000000
  0.000000  0.200000  0.200000      4.000000
  0.200000  0.200000  0.200000      8.000000
  0.400000  0.200000  0.200000      8.000000
  0.000000  0.400000  0.200000      8.000000
  0.200000  0.400000  0.200000     16.000000
  0.400000  0.400000  0.200000     16.000000
  0.000000  0.400000  0.400000      4.000000
  0.200000  0.400000  0.400000      8.000000
  0.400000  0.400000  0.400000      8.000000
 
 Following cartesian coordinates:
            Coordinates               Weight
  0.000000  0.000000  0.000000      1.000000
  0.049559  0.000000  0.000000      2.000000
  0.099118  0.000000  0.000000      2.000000
  0.000000  0.049559  0.000000      4.000000
  0.049559  0.049559  0.000000      8.000000
  0.099118  0.049559  0.000000      8.000000
  0.000000  0.099118  0.000000      4.000000
  0.049559  0.099118  0.000000      8.000000
  0.099118  0.099118  0.000000      8.000000
  0.000000  0.049559  0.049559      4.000000
  0.049559  0.049559  0.049559      8.000000
  0.099118  0.049559  0.049559      8.000000
  0.000000  0.099118  0.049559      8.000000
  0.049559  0.099118  0.049559     16.000000
  0.099118  0.099118  0.049559     16.000000
  0.000000  0.099118  0.099118      4.000000
  0.049559  0.099118  0.099118      8.000000
  0.099118  0.099118  0.099118      8.000000
 


--------------------------------------------------------------------------------------------------------




 Dimension of arrays:
   k-points           NKPTS =     18   k-points in BZ     NKDIM =     18   number of bands    NBANDS=     32
   number of dos      NEDOS =    301   number of ions     NIONS =      5
   non local maximal  LDIM  =      6   non local SUM 2l+1 LMDIM =     18
   total plane-waves  NPLWV =  13824
   max r-space proj   IRMAX =      1   max aug-charges    IRDMAX=   2015
   dimension x,y,z NGX =    24 NGY =   24 NGZ =   24
   dimension x,y,z NGXF=    24 NGYF=   24 NGZF=   24
   support grid    NGXF=    24 NGYF=   24 NGZF=   24
   ions per type =               1   1   2   1
 NGX,Y,Z   is equivalent  to a cutoff of   9.89,  9.89,  9.89 a.u.
 NGXF,Y,Z  is equivalent  to a cutoff of   9.89,  9.89,  9.89 a.u.


 I would recommend the setting:
   dimension x,y,z NGX =    22 NGY =   22 NGZ =   22
 SYSTEM =  unknown system                          
 POSCAR =  Ba Ti O  H                              

 Startparameter for this run:
   NWRITE =      2    write-flag & timer
   PREC   = single    normal or accurate (medium, high low for compatibility)
   ISTART =      0    job   : 0-new  1-cont  2-samecut
   ICHARG =      2    charge: 1-file 2-atom 10-const
   ISPIN  =      1    spin polarized calculation?
   LNONCOLLINEAR =      F non collinear calculations
   LSORBIT =      F    spin-orbit coupling
   INIWAV =      1    electr: 0-lowe 1-rand  2-diag
   LASPH  =      F    aspherical Exc in radial PAW
   METAGGA=      F    non-selfconsistent MetaGGA calc.

 Electronic Relaxation 1
   ENCUT  =  500.0 eV  36.75 Ry    6.06 a.u.   7.36  7.36  7.36*2*pi/ulx,y,z
   ENINI  =  500.0     initial cutoff
   ENAUG  =  605.4 eV  augmentation charge cutoff
   NELM   =     60;   NELMIN=  2; NELMDL= -5     # of ELM steps 
   EDIFF  = 0.1E-04   stopping-criterion for ELM
   LREAL  =      F    real-space projection
   NLSPLINE    = F    spline interpolate recip. space projectors
   LCOMPAT=      F    compatible to vasp.4.4
   GGA_COMPAT  = T    GGA compatible to vasp.4.4-vasp.4.6
   LMAXPAW     = -100 max onsite density
   LMAXMIX     =    2 max onsite mixed and CHGCAR
   VOSKOWN=      0    Vosko Wilk Nusair interpolation
   ROPT   =    0.00000   0.00000   0.00000   0.00000
 Ionic relaxation
   EDIFFG = -.1E-02   stopping-criterion for IOM
   NSW    =    300    number of steps for IOM
   NBLOCK =      1;   KBLOCK =    300    inner block; outer block 
   IBRION =      1    ionic relax: 0-MD 1-quasi-New 2-CG
   NFREE  =      0    steps in history (QN), initial steepest desc. (CG)
   ISIF   =      3    stress and relaxation
   IWAVPR =     11    prediction:  0-non 1-charg 2-wave 3-comb
   ISYM   =      2    0-nonsym 1-usesym 2-fastsym
   LCORR  =      T    Harris-Foulkes like correction to forces

   POTIM  = 0.5000    time-step for ionic-motion
   TEIN   =    0.0    initial temperature
   TEBEG  =    0.0;   TEEND  =   0.0 temperature during run
   SMASS  =  -3.00    Nose mass-parameter (am)
   estimated Nose-frequenzy (Omega)   =  0.10E-29 period in steps =****** mass=  -0.372E-27a.u.
   SCALEE = 1.0000    scale energy and forces
   NPACO  =    256;   APACO  = 16.0  distance and # of slots for P.C.
   PSTRESS=    0.0 pullay stress

  Mass of Ions in am
   POMASS = 137.33 47.88 16.00  1.00
  Ionic Valenz
   ZVAL   =  10.00  4.00  6.00  1.00
  Atomic Wigner-Seitz radii
   RWIGS  =  -1.00 -1.00 -1.00 -1.00
  virtual crystal weights 
   VCA    =   1.00  1.00  1.00  1.00
   NELECT =      27.0000    total number of electrons
   NUPDOWN=      -1.0000    fix difference up-down

 DOS related values:
   EMIN   =  10.00;   EMAX   =-10.00  energy-range for DOS
   EFERMI =   0.00
   ISMEAR =     1;   SIGMA  =   0.20  broadening in eV -4-tet -1-fermi 0-gaus

 Electronic relaxation 2 (details)
   IALGO  =     38    algorithm
   LDIAG  =      T    sub-space diagonalisation (order eigenvalues)
   LSUBROT=      F    optimize rotation matrix (better conditioning)
   TURBO    =      0    0=normal 1=particle mesh
   IRESTART =      0    0=no restart 2=restart with 2 vectors
   NREBOOT  =      0    no. of reboots
   NMIN     =      0    reboot dimension
   EREF     =   0.00    reference energy to select bands
   IMIX   =      4    mixing-type and parameters
     AMIX     =   0.40;   BMIX     =  1.00
     AMIX_MAG =   1.60;   BMIX_MAG =  1.00
     AMIN     =   0.10
     WC   =   100.;   INIMIX=   1;  MIXPRE=   1;  MAXMIX= -45

 Intra band minimization:
   WEIMIN = 0.0010     energy-eigenvalue tresh-hold
   EBREAK =  0.78E-07  absolut break condition
   DEPER  =   0.30     relativ break condition  

   TIME   =   0.40     timestep for ELM

  volume/ion in A,a.u.               =      13.14        88.70
  Fermi-wavevector in a.u.,A,eV,Ry     =   1.216998  2.299792 20.151367  1.481084
  Thomas-Fermi vector in A             =   2.352333
 
 Write flags
   LWAVE  =      F    write WAVECAR
   LCHARG =      T    write CHGCAR
   LVTOT  =      F    write LOCPOT, total local potential
   LVHAR  =      F    write LOCPOT, Hartree potential only
   LELF   =      F    write electronic localiz. function (ELF)
   LORBIT =      0    0 simple, 1 ext, 2 COOP (PROOUT)


 Dipole corrections
   LMONO  =      F    monopole corrections only (constant potential shift)
   LDIPOL =      F    correct potential (dipole corrections)
   IDIPOL =      0    1-x, 2-y, 3-z, 4-all directions 
   EPSILON=  1.0000000 bulk dielectric constant

 Exchange correlation treatment:
   GGA     =    PE    GGA type
   LEXCH   =     8    internal setting for exchange type
   VOSKOWN=      0    Vosko Wilk Nusair interpolation
   LHFCALC =     F    Hartree Fock is set to
   LHFONE  =     F    Hartree Fock one center treatment
   AEXX    =    0.0000 exact exchange contribution

 Linear response parameters
   LEPSILON=     F    determine dielectric tensor
   LRPA    =     F    only Hartree local field effects (RPA)
   LNABLA  =     F    use nabla operator in PAW spheres
   LVEL    =     F    velocity operator in full k-point grid
   LINTERFAST=   F  fast interpolation
   KINTER  =     0    interpolate to denser k-point grid
   CSHIFT  =0.1000    complex shift for real part using Kramers Kronig
   OMEGAMAX=  -1.0    maximum frequency
   DEG_THRESHOLD= 0.2000000E-02 threshold for treating states as degnerate
   RTIME   =    0.100 relaxation time in fs

 Orbital magnetization related:
   ORBITALMAG=     F  switch on orbital magnetization
   LCHIMAG   =     F  perturbation theory with respect to B field
   DQ        =  0.001000  dq finite difference perturbation B field



--------------------------------------------------------------------------------------------------------


 quasi-Newton-method for relaxation of ions
 charge density and potential will be updated during run
 non-spin polarized calculation
 Variant of blocked Davidson
 Davidson routine will perform the subspace rotation
 perform sub-space diagonalisation
    after iterative eigenvector-optimisation
 modified Broyden-mixing scheme, WC =      100.0
 initial mixing is a Kerker type mixing with AMIX =  0.4000 and BMIX =      1.0000
 Hartree-type preconditioning will be used
 using additional bands           18
 reciprocal scheme for non local part
 use partial core corrections
 calculate Harris-corrections to forces 
   (improved forces if not selfconsistent)
 use gradient corrections 
 use of overlap-Matrix (Vanderbilt PP)
 Methfessel and Paxton  Order N= 1 SIGMA  =   0.20


--------------------------------------------------------------------------------------------------------


  energy-cutoff  :      500.00
  volume of cell :       65.72
      direct lattice vectors                 reciprocal lattice vectors
     4.035583019  0.000000000  0.000000000     0.247795670  0.000000000  0.000000000
     0.000000000  4.035583019  0.000000000     0.000000000  0.247795670  0.000000000
     0.000000000  0.000000000  4.035583019     0.000000000  0.000000000  0.247795670

  length of vectors
     4.035583019  4.035583019  4.035583019     0.247795670  0.247795670  0.247795670


 
 k-points in units of 2pi/SCALE and weight: KPOINTS created by Atomic Simulation Env
   0.00000000  0.00000000  0.00000000       0.008
   0.04955913  0.00000000  0.00000000       0.016
   0.09911827  0.00000000  0.00000000       0.016
   0.00000000  0.04955913  0.00000000       0.032
   0.04955913  0.04955913  0.00000000       0.064
   0.09911827  0.04955913  0.00000000       0.064
   0.00000000  0.09911827  0.00000000       0.032
   0.04955913  0.09911827  0.00000000       0.064
   0.09911827  0.09911827  0.00000000       0.064
   0.00000000  0.04955913  0.04955913       0.032
   0.04955913  0.04955913  0.04955913       0.064
   0.09911827  0.04955913  0.04955913       0.064
   0.00000000  0.09911827  0.04955913       0.064
   0.04955913  0.09911827  0.04955913       0.128
   0.09911827  0.09911827  0.04955913       0.128
   0.00000000  0.09911827  0.09911827       0.032
   0.04955913  0.09911827  0.09911827       0.064
   0.09911827  0.09911827  0.09911827       0.064
 
 k-points in reciprocal lattice and weights: KPOINTS created by Atomic Simulation Env
   0.00000000  0.00000000  0.00000000       0.008
   0.20000000  0.00000000  0.00000000       0.016
   0.40000000  0.00000000  0.00000000       0.016
   0.00000000  0.20000000  0.00000000       0.032
   0.20000000  0.20000000  0.00000000       0.064
   0.40000000  0.20000000  0.00000000       0.064
   0.00000000  0.40000000  0.00000000       0.032
   0.20000000  0.40000000  0.00000000       0.064
   0.40000000  0.40000000  0.00000000       0.064
   0.00000000  0.20000000  0.20000000       0.032
   0.20000000  0.20000000  0.20000000       0.064
   0.40000000  0.20000000  0.20000000       0.064
   0.00000000  0.40000000  0.20000000       0.064
   0.20000000  0.40000000  0.20000000       0.128
   0.40000000  0.40000000  0.20000000       0.128
   0.00000000  0.40000000  0.40000000       0.032
   0.20000000  0.40000000  0.40000000       0.064
   0.40000000  0.40000000  0.40000000       0.064
 
 position of ions in fractional coordinates (direct lattice) 
   0.00000000  0.00000000  0.00000000
   0.50000000  0.50000000  0.50000000
   0.50000000  0.00000000  0.50000000
   0.50000000  0.50000000  0.00000000
   0.00000000  0.50000000  0.50000000
 
 position of ions in cartesian coordinates  (Angst):
   0.00000000  0.00000000  0.00000000
   2.01779151  2.01779151  2.01779151
   2.01779151  0.00000000  2.01779151
   2.01779151  2.01779151  0.00000000
   0.00000000  2.01779151  2.01779151
 


--------------------------------------------------------------------------------------------------------


 k-point  1 :   0.0000 0.0000 0.0000  plane waves:    1743
 k-point  2 :   0.2000 0.0000 0.0000  plane waves:    1679
 k-point  3 :   0.4000 0.0000 0.0000  plane waves:    1678
 k-point  4 :   0.0000 0.2000 0.0000  plane waves:    1679
 k-point  5 :   0.2000 0.2000 0.0000  plane waves:    1683
 k-point  6 :   0.4000 0.2000 0.0000  plane waves:    1663
 k-point  7 :   0.0000 0.4000 0.0000  plane waves:    1678
 k-point  8 :   0.2000 0.4000 0.0000  plane waves:    1663
 k-point  9 :   0.4000 0.4000 0.0000  plane waves:    1656
 k-point 10 :   0.0000 0.2000 0.2000  plane waves:    1683
 k-point 11 :   0.2000 0.2000 0.2000  plane waves:    1674
 k-point 12 :   0.4000 0.2000 0.2000  plane waves:    1664
 k-point 13 :   0.0000 0.4000 0.2000  plane waves:    1663
 k-point 14 :   0.2000 0.4000 0.2000  plane waves:    1664
 k-point 15 :   0.4000 0.4000 0.2000  plane waves:    1669
 k-point 16 :   0.0000 0.4000 0.4000  plane waves:    1656
 k-point 17 :   0.2000 0.4000 0.4000  plane waves:    1669
 k-point 18 :   0.4000 0.4000 0.4000  plane waves:    1661

 maximum and minimum number of plane-waves per node :      1743     1656

 maximum number of plane-waves:      1743
 maximum index in each direction: 
   IXMAX=    7   IYMAX=    7   IZMAX=    7
   IXMIN=   -7   IYMIN=   -7   IZMIN=   -7

 WARNING: aliasing errors must be expected set NGX to  30 to avoid them
 WARNING: aliasing errors must be expected set NGY to  30 to avoid them
 WARNING: aliasing errors must be expected set NGZ to  30 to avoid them
 aliasing errors are usually negligible using standard VASP settings
 and one can safely disregard these warnings

 serial   3D FFT for wavefunctions
 parallel 3D FFT for charge:
    minimum data exchange during FFTs selected (reduces bandwidth)


 total amount of memory used by VASP on root node    50101. kBytes
========================================================================

   base      :      30000. kBytes
   nonl-proj :      18221. kBytes
   fftplans  :        112. kBytes
   grid      :        650. kBytes
   one-center:         77. kBytes
   wavefun   :       1041. kBytes
 
     INWAV:  cpu time    0.0000: real time    0.0000
 Broyden mixing: mesh for mixing (old mesh)
   NGX = 15   NGY = 15   NGZ = 15
  (NGX  = 24   NGY  = 24   NGZ  = 24)
  gives a total of   3375 points

 initial charge density was supplied:
 charge density of overlapping atoms calculated
 number of electron      27.0000000 magnetization 
 keeping initial charge density in first step


--------------------------------------------------------------------------------------------------------


 Maximum index for augmentation-charges          169 (set IRDMAX)


--------------------------------------------------------------------------------------------------------


 First call to EWALD:  gamma=   0.439
 Maximum number of real-space cells 3x 3x 3
 Maximum number of reciprocal cells 3x 3x 3

 FEWALD executed in parallel
    FEWALD:  cpu time    0.0021: real time    0.0021


----------------------------------------- Iteration    1(   1)  ---------------------------------------


    POTLOK:  cpu time    0.0022: real time    0.0022
    SETDIJ:  cpu time    0.0029: real time    0.0029
     EDDAV:  cpu time    0.2260: real time    0.2260
       DOS:  cpu time    0.0005: real time    0.0005
    --------------------------------------------
      LOOP:  cpu time    0.2326: real time    0.3076

 eigenvalue-minimisations  :  1152
 total energy-change (2. order) : 0.1209850E+03  (-0.1214778E+04)
 number of electron      27.0000000 magnetization 
 augmentation part       27.0000000 magnetization 

 Free energy of the ion-electron system (eV)
  ---------------------------------------------------
  alpha Z        PSCENC =       164.03168967
  Ewald energy   TEWEN  =     -1458.96537803
  -Hartree energ DENC   =      -312.89800616
  -exchange      EXHF   =         0.00000000
  -V(xc)+E(xc)   XCENC  =        46.72637416
  PAW double counting   =      1338.09507362    -1298.61003656
  entropy T*S    EENTRO =         0.00315056
  eigenvalues    EBANDS =       -30.24524527
  atomic energy  EATOM  =      1672.84739955
  Solvation  Ediel_sol  =         0.00000000
  ---------------------------------------------------
  free energy    TOTEN  =       120.98502154 eV

  energy without entropy =      120.98187098  energy(sigma->0) =      120.98397135


--------------------------------------------------------------------------------------------------------




----------------------------------------- Iteration    1(   2)  ---------------------------------------


     EDDAV:  cpu time    0.2875: real time    0.2874
       DOS:  cpu time    0.0004: real time    0.0003
    --------------------------------------------
      LOOP:  cpu time    0.2883: real time    0.3439

 eigenvalue-minimisations  :  1488
 total energy-change (2. order) :-0.1554838E+03  (-0.1417146E+03)
 number of electron      27.0000000 magnetization 
 augmentation part       27.0000000 magnetization 

 Free energy of the ion-electron system (eV)
  ---------------------------------------------------
  alpha Z        PSCENC =       164.03168967
  Ewald energy   TEWEN  =     -1458.96537803
  -Hartree energ DENC   =      -312.89800616
  -exchange      EXHF   =         0.00000000
  -V(xc)+E(xc)   XCENC  =        46.72637416
  PAW double counting   =      1338.09507362    -1298.61003656
  entropy T*S    EENTRO =         0.00520813
  eigenvalues    EBANDS =      -185.73105991
  atomic energy  EATOM  =      1672.84739955
  Solvation  Ediel_sol  =         0.00000000
  ---------------------------------------------------
  free energy    TOTEN  =       -34.49873552 eV

  energy without entropy =      -34.50394365  energy(sigma->0) =      -34.50047156


--------------------------------------------------------------------------------------------------------




----------------------------------------- Iteration    1(   3)  ---------------------------------------


     EDDAV:  cpu time    0.2617: real time    0.2616
       DOS:  cpu time    0.0003: real time    0.0003
    --------------------------------------------
      LOOP:  cpu time    0.2624: real time    0.3425

 eigenvalue-minimisations  :  1344
 total energy-change (2. order) :-0.6784965E+01  (-0.6757913E+01)
 number of electron      27.0000000 magnetization 
 augmentation part       27.0000000 magnetization 

 Free energy of the ion-electron system (eV)
  ---------------------------------------------------
  alpha Z        PSCENC =       164.03168967
  Ewald energy   TEWEN  =     -1458.96537803
  -Hartree energ DENC   =      -312.89800616
  -exchange      EXHF   =         0.00000000
  -V(xc)+E(xc)   XCENC  =        46.72637416
  PAW double counting   =      1338.09507362    -1298.61003656
  entropy T*S    EENTRO =         0.00649158
  eigenvalues    EBANDS =      -192.51730847
  atomic energy  EATOM  =      1672.84739955
  Solvation  Ediel_sol  =         0.00000000
  ---------------------------------------------------
  free energy    TOTEN  =       -41.28370064 eV

  energy without entropy =      -41.29019222  energy(sigma->0) =      -41.28586450


--------------------------------------------------------------------------------------------------------




----------------------------------------- Iteration    1(   4)  ---------------------------------------


     EDDAV:  cpu time    0.3215: real time    0.3214
       DOS:  cpu time    0.0003: real time    0.0003
    --------------------------------------------
      LOOP:  cpu time    0.3223: real time    0.5697

 eigenvalue-minimisations  :  1584
 total energy-change (2. order) :-0.5106810E-01  (-0.5106004E-01)
 number of electron      27.0000000 magnetization 
 augmentation part       27.0000000 magnetization 

 Free energy of the ion-electron system (eV)
  ---------------------------------------------------
  alpha Z        PSCENC =       164.03168967
  Ewald energy   TEWEN  =     -1458.96537803
  -Hartree energ DENC   =      -312.89800616
  -exchange      EXHF   =         0.00000000
  -V(xc)+E(xc)   XCENC  =        46.72637416
  PAW double counting   =      1338.09507362    -1298.61003656
  entropy T*S    EENTRO =         0.00648488
  eigenvalues    EBANDS =      -192.56836987
  atomic energy  EATOM  =      1672.84739955
  Solvation  Ediel_sol  =         0.00000000
  ---------------------------------------------------
  free energy    TOTEN  =       -41.33476874 eV

  energy without entropy =      -41.34125362  energy(sigma->0) =      -41.33693037


--------------------------------------------------------------------------------------------------------




----------------------------------------- Iteration    1(   5)  ---------------------------------------


     EDDAV:  cpu time    0.2519: real time    0.2519
       DOS:  cpu time    0.0004: real time    0.0004
    CHARGE:  cpu time    0.0097: real time    0.0097
    MIXING:  cpu time    0.0010: real time    0.0003
    --------------------------------------------
      LOOP:  cpu time    0.2634: real time    0.5228

 eigenvalue-minimisations  :  1296
 total energy-change (2. order) :-0.7126783E-03  (-0.7126757E-03)
 number of electron      27.0003085 magnetization 
 augmentation part        0.3767967 magnetization 

 Broyden mixing:
  rms(total) = 0.23289E+01    rms(broyden)= 0.23287E+01
  rms(prec ) = 0.44701E+01
  weight for this iteration     100.00

 Free energy of the ion-electron system (eV)
  ---------------------------------------------------
  alpha Z        PSCENC =       164.03168967
  Ewald energy   TEWEN  =     -1458.96537803
  -Hartree energ DENC   =      -312.89800616
  -exchange      EXHF   =         0.00000000
  -V(xc)+E(xc)   XCENC  =        46.72637416
  PAW double counting   =      1338.09507362    -1298.61003656
  entropy T*S    EENTRO =         0.00648468
  eigenvalues    EBANDS =      -192.56908235
  atomic energy  EATOM  =      1672.84739955
  Solvation  Ediel_sol  =         0.00000000
  ---------------------------------------------------
  free energy    TOTEN  =       -41.33548142 eV

  energy without entropy =      -41.34196610  energy(sigma->0) =      -41.33764298


--------------------------------------------------------------------------------------------------------




----------------------------------------- Iteration    1(   6)  ---------------------------------------


    POTLOK:  cpu time    0.0025: real time    0.0029
    SETDIJ:  cpu time    0.0027: real time    0.0027
     EDDAV:  cpu time    0.2902: real time    0.2902
       DOS:  cpu time    0.0004: real time    0.0004
    CHARGE:  cpu time    0.0096: real time    0.0096
    MIXING:  cpu time    0.0002: real time    0.0002
    --------------------------------------------
      LOOP:  cpu time    0.3057: real time    0.5717

 eigenvalue-minimisations  :  1472
 total energy-change (2. order) : 0.6605564E+01  (-0.2561849E+01)
 number of electron      27.0001888 magnetization 
 augmentation part        0.9306768 magnetization 

 Broyden mixing:
  rms(total) = 0.98564E+00    rms(broyden)= 0.98518E+00
  rms(prec ) = 0.20197E+01
  weight for this iteration     100.00

 eigenvalues of (default mixing * dielectric matrix)
  average eigenvalue GAMMA=   0.8323
  0.8323

 Free energy of the ion-electron system (eV)
  ---------------------------------------------------
  alpha Z        PSCENC =       164.03168967
  Ewald energy   TEWEN  =     -1458.96537803
  -Hartree energ DENC   =      -353.01452582
  -exchange      EXHF   =         0.00000000
  -V(xc)+E(xc)   XCENC  =        50.24959735
  PAW double counting   =      1679.61644842    -1641.05005857
  entropy T*S    EENTRO =         0.00422261
  eigenvalues    EBANDS =      -148.44931283
  atomic energy  EATOM  =      1672.84739955
  Solvation  Ediel_sol  =         0.00000000
  ---------------------------------------------------
  free energy    TOTEN  =       -34.72991764 eV

  energy without entropy =      -34.73414025  energy(sigma->0) =      -34.73132518


--------------------------------------------------------------------------------------------------------




----------------------------------------- Iteration    1(   7)  ---------------------------------------


    POTLOK:  cpu time    0.0015: real time    0.0015
    SETDIJ:  cpu time    0.0024: real time    0.0024
     EDDAV:  cpu time    0.2656: real time    0.2655
       DOS:  cpu time    0.0004: real time    0.0004
    CHARGE:  cpu time    0.0101: real time    0.0111
    MIXING:  cpu time    0.0002: real time    0.0002
    --------------------------------------------
      LOOP:  cpu time    0.2817: real time    0.4445

 eigenvalue-minimisations  :  1376
 total energy-change (2. order) : 0.7908846E+00  (-0.9809488E+00)
 number of electron      27.0002357 magnetization 
 augmentation part        0.5669597 magnetization 

 Broyden mixing:
  rms(total) = 0.76884E+00    rms(broyden)= 0.76881E+00
  rms(prec ) = 0.10849E+01
  weight for this iteration     100.00

 eigenvalues of (default mixing * dielectric matrix)
  average eigenvalue GAMMA=   1.7992
  0.6221  2.9762

 Free energy of the ion-electron system (eV)
  ---------------------------------------------------
  alpha Z        PSCENC =       164.03168967
  Ewald energy   TEWEN  =     -1458.96537803
  -Hartree energ DENC   =      -338.21291239
  -exchange      EXHF   =         0.00000000
  -V(xc)+E(xc)   XCENC  =        49.12877318
  PAW double counting   =      1797.54150913    -1759.63812546
  entropy T*S    EENTRO =        -0.00614696
  eigenvalues    EBANDS =      -160.66584173
  atomic energy  EATOM  =      1672.84739955
  Solvation  Ediel_sol  =         0.00000000
  ---------------------------------------------------
  free energy    TOTEN  =       -33.93903304 eV

  energy without entropy =      -33.93288607  energy(sigma->0) =      -33.93698405


--------------------------------------------------------------------------------------------------------




----------------------------------------- Iteration    1(   8)  ---------------------------------------


    POTLOK:  cpu time    0.0017: real time    0.0017
    SETDIJ:  cpu time    0.0025: real time    0.0025
     EDDAV:  cpu time    0.2683: real time    0.2683
       DOS:  cpu time    0.0004: real time    0.0004
    CHARGE:  cpu time    0.0106: real time    0.0106
    MIXING:  cpu time    0.0002: real time    0.0002
    --------------------------------------------
      LOOP:  cpu time    0.2842: real time    0.6142

 eigenvalue-minimisations  :  1376
 total energy-change (2. order) : 0.1483532E+00  (-0.1738611E+00)
 number of electron      27.0002158 magnetization 
 augmentation part        0.7797082 magnetization 

 Broyden mixing:
  rms(total) = 0.21910E+00    rms(broyden)= 0.21908E+00
  rms(prec ) = 0.55275E+00
  weight for this iteration     100.00

 eigenvalues of (default mixing * dielectric matrix)
  average eigenvalue GAMMA=   1.2601
  2.2767  0.9528  0.5509

 Free energy of the ion-electron system (eV)
  ---------------------------------------------------
  alpha Z        PSCENC =       164.03168967
  Ewald energy   TEWEN  =     -1458.96537803
  -Hartree energ DENC   =      -342.72746880
  -exchange      EXHF   =         0.00000000
  -V(xc)+E(xc)   XCENC  =        49.75664872
  PAW double counting   =      2167.27427131    -2130.05000735
  entropy T*S    EENTRO =         0.00098437
  eigenvalues    EBANDS =      -155.95881932
  atomic energy  EATOM  =      1672.84739955
  Solvation  Ediel_sol  =         0.00000000
  ---------------------------------------------------
  free energy    TOTEN  =       -33.79067987 eV

  energy without entropy =      -33.79166424  energy(sigma->0) =      -33.79100799


--------------------------------------------------------------------------------------------------------




----------------------------------------- Iteration    1(   9)  ---------------------------------------


    POTLOK:  cpu time    0.0015: real time    0.0015
    SETDIJ:  cpu time    0.0024: real time    0.0024
     EDDAV:  cpu time    0.2724: real time    0.2725
       DOS:  cpu time    0.0004: real time    0.0004
    CHARGE:  cpu time    0.0120: real time    0.0120
    MIXING:  cpu time    0.0003: real time    0.0003
    --------------------------------------------
      LOOP:  cpu time    0.2895: real time    0.6875

 eigenvalue-minimisations  :  1392
 total energy-change (2. order) : 0.9379837E-01  (-0.3290839E-01)
 number of electron      27.0002239 magnetization 
 augmentation part        0.6812192 magnetization 

 Broyden mixing:
  rms(total) = 0.30168E-01    rms(broyden)= 0.30127E-01
  rms(prec ) = 0.71366E-01
  weight for this iteration     100.00

 eigenvalues of (default mixing * dielectric matrix)
  average eigenvalue GAMMA=   1.3333
  2.4697  0.5533  1.3352  0.9749

 Free energy of the ion-electron system (eV)
  ---------------------------------------------------
  alpha Z        PSCENC =       164.03168967
  Ewald energy   TEWEN  =     -1458.96537803
  -Hartree energ DENC   =      -341.45040839
  -exchange      EXHF   =         0.00000000
  -V(xc)+E(xc)   XCENC  =        49.60145668
  PAW double counting   =      2180.11030995    -2143.04142454
  entropy T*S    EENTRO =        -0.00408799
  eigenvalues    EBANDS =      -156.82643840
  atomic energy  EATOM  =      1672.84739955
  Solvation  Ediel_sol  =         0.00000000
  ---------------------------------------------------
  free energy    TOTEN  =       -33.69688150 eV

  energy without entropy =      -33.69279351  energy(sigma->0) =      -33.69551883


--------------------------------------------------------------------------------------------------------




----------------------------------------- Iteration    1(  10)  ---------------------------------------


    POTLOK:  cpu time    0.0015: real time    0.0015
    SETDIJ:  cpu time    0.0024: real time    0.0025
     EDDAV:  cpu time    0.3163: real time    0.3162
       DOS:  cpu time    0.0004: real time    0.0004
    CHARGE:  cpu time    0.0124: real time    0.0124
    MIXING:  cpu time    0.0002: real time    0.0002
    --------------------------------------------
      LOOP:  cpu time    0.3338: real time    0.5218

 eigenvalue-minimisations  :  1584
 total energy-change (2. order) :-0.5770007E-03  (-0.1573469E-02)
 number of electron      27.0002251 magnetization 
 augmentation part        0.6673590 magnetization 

 Broyden mixing:
  rms(total) = 0.14638E-01    rms(broyden)= 0.14618E-01
  rms(prec ) = 0.27037E-01
  weight for this iteration     100.00

 eigenvalues of (default mixing * dielectric matrix)
  average eigenvalue GAMMA=   1.4432
  2.1996  2.1996  0.5537  1.3260  0.9369

 Free energy of the ion-electron system (eV)
  ---------------------------------------------------
  alpha Z        PSCENC =       164.03168967
  Ewald energy   TEWEN  =     -1458.96537803
  -Hartree energ DENC   =      -341.79614484
  -exchange      EXHF   =         0.00000000
  -V(xc)+E(xc)   XCENC  =        49.61053750
  PAW double counting   =      2194.08371392    -2157.06194008
  entropy T*S    EENTRO =        -0.00481322
  eigenvalues    EBANDS =      -156.44252297
  atomic energy  EATOM  =      1672.84739955
  Solvation  Ediel_sol  =         0.00000000
  ---------------------------------------------------
  free energy    TOTEN  =       -33.69745850 eV

  energy without entropy =      -33.69264528  energy(sigma->0) =      -33.69585409


--------------------------------------------------------------------------------------------------------




----------------------------------------- Iteration    1(  11)  ---------------------------------------


    POTLOK:  cpu time    0.0015: real time    0.0015
    SETDIJ:  cpu time    0.0024: real time    0.0024
     EDDAV:  cpu time    0.2478: real time    0.2477
       DOS:  cpu time    0.0004: real time    0.0004
    CHARGE:  cpu time    0.0132: real time    0.0132
    MIXING:  cpu time    0.0003: real time    0.0003
    --------------------------------------------
      LOOP:  cpu time    0.2661: real time    0.4146

 eigenvalue-minimisations  :  1280
 total energy-change (2. order) :-0.2976606E-03  (-0.2355962E-03)
 number of electron      27.0002244 magnetization 
 augmentation part        0.6725763 magnetization 

 Broyden mixing:
  rms(total) = 0.84411E-02    rms(broyden)= 0.84403E-02
  rms(prec ) = 0.18849E-01
  weight for this iteration     100.00

 eigenvalues of (default mixing * dielectric matrix)
  average eigenvalue GAMMA=   1.4735
  2.3914  2.3914  0.5541  0.9070  1.2986  1.2986

 Free energy of the ion-electron system (eV)
  ---------------------------------------------------
  alpha Z        PSCENC =       164.03168967
  Ewald energy   TEWEN  =     -1458.96537803
  -Hartree energ DENC   =      -342.14068209
  -exchange      EXHF   =         0.00000000
  -V(xc)+E(xc)   XCENC  =        49.63970024
  PAW double counting   =      2193.16453920    -2156.13956368
  entropy T*S    EENTRO =        -0.00462555
  eigenvalues    EBANDS =      -156.13083547
  atomic energy  EATOM  =      1672.84739955
  Solvation  Ediel_sol  =         0.00000000
  ---------------------------------------------------
  free energy    TOTEN  =       -33.69775616 eV

  energy without entropy =      -33.69313061  energy(sigma->0) =      -33.69621431


--------------------------------------------------------------------------------------------------------




----------------------------------------- Iteration    1(  12)  ---------------------------------------


    POTLOK:  cpu time    0.0015: real time    0.0015
    SETDIJ:  cpu time    0.0024: real time    0.0024
     EDDAV:  cpu time    0.3048: real time    0.3047
       DOS:  cpu time    0.0004: real time    0.0004
    CHARGE:  cpu time    0.0125: real time    0.0125
    MIXING:  cpu time    0.0003: real time    0.0003
    --------------------------------------------
      LOOP:  cpu time    0.3224: real time    0.5760

 eigenvalue-minimisations  :  1552
 total energy-change (2. order) : 0.5275723E-05  (-0.8656578E-04)
 number of electron      27.0002250 magnetization 
 augmentation part        0.6705782 magnetization 

 Broyden mixing:
  rms(total) = 0.39036E-02    rms(broyden)= 0.39011E-02
  rms(prec ) = 0.96344E-02
  weight for this iteration     100.00

 eigenvalues of (default mixing * dielectric matrix)
  average eigenvalue GAMMA=   1.5445
  2.9525  2.0140  2.0140  0.5543  1.3666  0.8678  1.0423

 Free energy of the ion-electron system (eV)
  ---------------------------------------------------
  alpha Z        PSCENC =       164.03168967
  Ewald energy   TEWEN  =     -1458.96537803
  -Hartree energ DENC   =      -341.97726950
  -exchange      EXHF   =         0.00000000
  -V(xc)+E(xc)   XCENC  =        49.62916812
  PAW double counting   =      2192.31484520    -2155.29451487
  entropy T*S    EENTRO =        -0.00472874
  eigenvalues    EBANDS =      -156.27896228
  atomic energy  EATOM  =      1672.84739955
  Solvation  Ediel_sol  =         0.00000000
  ---------------------------------------------------
  free energy    TOTEN  =       -33.69775088 eV

  energy without entropy =      -33.69302214  energy(sigma->0) =      -33.69617464


--------------------------------------------------------------------------------------------------------




----------------------------------------- Iteration    1(  13)  ---------------------------------------


    POTLOK:  cpu time    0.0015: real time    0.0015
    SETDIJ:  cpu time    0.0024: real time    0.0024
     EDDAV:  cpu time    0.2473: real time    0.2473
       DOS:  cpu time    0.0000: real time    0.0004
    CHARGE:  cpu time    0.0121: real time    0.0127
    MIXING:  cpu time    0.0003: real time    0.0003
    --------------------------------------------
      LOOP:  cpu time    0.2651: real time    0.4481

 eigenvalue-minimisations  :  1280
 total energy-change (2. order) : 0.1693975E-04  (-0.1319791E-04)
 number of electron      27.0002248 magnetization 
 augmentation part        0.6718638 magnetization 

 Broyden mixing:
  rms(total) = 0.14615E-02    rms(broyden)= 0.14613E-02
  rms(prec ) = 0.17374E-02
  weight for this iteration     100.00

 eigenvalues of (default mixing * dielectric matrix)
  average eigenvalue GAMMA=   1.5322
  2.9847  2.2218  2.2218  0.5543  1.2722  1.2269  0.9302  0.8458

 Free energy of the ion-electron system (eV)
  ---------------------------------------------------
  alpha Z        PSCENC =       164.03168967
  Ewald energy   TEWEN  =     -1458.96537803
  -Hartree energ DENC   =      -342.05231615
  -exchange      EXHF   =         0.00000000
  -V(xc)+E(xc)   XCENC  =        49.63669476
  PAW double counting   =      2193.08962604    -2156.07445397
  entropy T*S    EENTRO =        -0.00469117
  eigenvalues    EBANDS =      -156.20630464
  atomic energy  EATOM  =      1672.84739955
  Solvation  Ediel_sol  =         0.00000000
  ---------------------------------------------------
  free energy    TOTEN  =       -33.69773394 eV

  energy without entropy =      -33.69304277  energy(sigma->0) =      -33.69617022


--------------------------------------------------------------------------------------------------------




----------------------------------------- Iteration    1(  14)  ---------------------------------------


    POTLOK:  cpu time    0.0015: real time    0.0015
    SETDIJ:  cpu time    0.0025: real time    0.0025
     EDDAV:  cpu time    0.2221: real time    0.2221
       DOS:  cpu time    0.0004: real time    0.0004
    --------------------------------------------
      LOOP:  cpu time    0.2269: real time    0.3981

 eigenvalue-minimisations  :  1056
 total energy-change (2. order) : 0.6009484E-06  (-0.7494132E-06)
 number of electron      27.0002248 magnetization 
 augmentation part        0.6718638 magnetization 

 Free energy of the ion-electron system (eV)
  ---------------------------------------------------
  alpha Z        PSCENC =       164.03168967
  Ewald energy   TEWEN  =     -1458.96537803
  -Hartree energ DENC   =      -342.05052273
  -exchange      EXHF   =         0.00000000
  -V(xc)+E(xc)   XCENC  =        49.63656465
  PAW double counting   =      2192.26608393    -2155.25024576
  entropy T*S    EENTRO =        -0.00469268
  eigenvalues    EBANDS =      -156.20863195
  atomic energy  EATOM  =      1672.84739955
  Solvation  Ediel_sol  =         0.00000000
  ---------------------------------------------------
  free energy    TOTEN  =       -33.69773334 eV

  energy without entropy =      -33.69304066  energy(sigma->0) =      -33.69616912


--------------------------------------------------------------------------------------------------------




 average (electrostatic) potential at core
  the test charge radii are     1.2192  1.2598  0.7215  0.5201
  (the norm of the test charge is              1.0002)
       1 -35.4035       2 -26.5111       3 -71.7304       4 -71.7304       5 -32.6444
 
 
 
 E-fermi :   4.5045     XC(G=0): -10.5835     alpha+bet :-12.0839


 k-point     1 :       0.0000    0.0000    0.0000
  band No.  band energies     occupation 
      1     -23.4535      2.00000
      2     -14.7808      2.00000
      3     -14.2897      2.00000
      4      -8.5744      2.00000
      5      -8.5744      2.00000
      6      -8.5314      2.00000
      7      -1.6793      2.00000
      8      -0.1730      2.00000
      9      -0.1730      2.00000
     10       0.5584      2.00000
     11       0.6652      2.00000
     12       1.3928      2.00000
     13       1.3928      2.00000
     14       4.3278      2.01683
     15       4.3711      1.89582
     16       4.3711      1.89582
     17       6.4556     -0.00000
     18       6.5377     -0.00000
     19       6.7225     -0.00000
     20       7.4663     -0.00000
     21      10.0613      0.00000
     22      10.0613      0.00000
     23      10.0987      0.00000
     24      11.4876      0.00000
     25      12.6546      0.00000
     26      12.6546      0.00000
     27      12.8346      0.00000
     28      17.3914      0.00000
     29      20.2530      0.00000
     30      20.2530      0.00000
     31      21.5685      0.00000
     32      22.3270      0.00000

 k-point     2 :       0.2000    0.0000    0.0000
  band No.  band energies     occupation 
      1     -23.4225      2.00000
      2     -14.9225      2.00000
      3     -14.2766      2.00000
      4      -8.5239      2.00000
      5      -8.5239      2.00000
      6      -8.3986      2.00000
      7      -1.6969      2.00000
      8      -0.3910      2.00000
      9      -0.3910      2.00000
     10       0.3357      2.00000
     11       0.7199      2.00000
     12       1.3023      2.00000
     13       1.3023      2.00000
     14       4.3761      1.87595
     15       4.3761      1.87595
     16       4.3968      1.78087
     17       6.5383     -0.00000
     18       6.5409     -0.00000
     19       7.1442     -0.00000
     20       8.0737     -0.00000
     21       9.9615     -0.00000
     22      10.3917      0.00000
     23      10.3917      0.00000
     24      10.8903      0.00000
     25      12.9948      0.00000
     26      13.1274      0.00000
     27      13.1274      0.00000
     28      18.5905      0.00000
     29      20.0969      0.00000
     30      20.2512      0.00000
     31      20.2512      0.00000
     32      20.8087      0.00000

 k-point     3 :       0.4000    0.0000    0.0000
  band No.  band energies     occupation 
      1     -23.3713      2.00000
      2     -15.1444      2.00000
      3     -14.2564      2.00000
      4      -8.4387      2.00000
      5      -8.4387      2.00000
      6      -8.1800      2.00000
      7      -1.9054      2.00000
      8      -0.7564      2.00000
      9      -0.7564      2.00000
     10      -0.1082      2.00000
     11       1.2316      2.00000
     12       1.2316      2.00000
     13       1.5437      2.00000
     14       4.3177      2.03379
     15       4.3177      2.03379
     16       4.5154      0.90818
     17       5.1714     -0.00003
     18       6.5413     -0.00000
     19       8.2684     -0.00000
     20       9.7310     -0.00000
     21       9.9313     -0.00000
     22      10.7813      0.00000
     23      10.9878      0.00000
     24      10.9878      0.00000
     25      13.4331      0.00000
     26      13.9436      0.00000
     27      13.9436      0.00000
     28      16.2707      0.00000
     29      19.1727      0.00000
     30      19.5586      0.00000
     31      19.8547      0.00000
     32      19.8547      0.00000

 k-point     4 :       0.0000    0.2000    0.0000
  band No.  band energies     occupation 
      1     -23.4268      2.00000
      2     -14.7379      2.00000
      3     -14.2795      2.00000
      4      -8.6619      2.00000
      5      -8.5503      2.00000
      6      -8.4852      2.00000
      7      -1.3787      2.00000
      8      -0.7282      2.00000
      9      -0.1460      2.00000
     10       0.2842      2.00000
     11       0.3879      2.00000
     12       0.7574      2.00000
     13       0.9665      2.00000
     14       4.4426      1.49722
     15       4.9231     -0.01170
     16       4.9454     -0.00782
     17       6.4512     -0.00000
     18       6.9030     -0.00000
     19       7.2952     -0.00000
     20       8.1489     -0.00000
     21       8.8398     -0.00000
     22       9.9178     -0.00000
     23      10.0827      0.00000
     24      10.4789      0.00000
     25      13.3224      0.00000
     26      14.7495      0.00000
     27      14.7989      0.00000
     28      17.4404      0.00000
     29      20.0880      0.00000
     30      20.2403      0.00000
     31      20.2487      0.00000
     32      20.9585      0.00000

 k-point     5 :       0.2000    0.2000    0.0000
  band No.  band energies     occupation 
      1     -23.3983      2.00000
      2     -14.8323      2.00000
      3     -14.2753      2.00000
      4      -8.7596      2.00000
      5      -8.4979      2.00000
      6      -8.3504      2.00000
      7      -1.3625      2.00000
      8      -0.8831      2.00000
      9      -0.3500      2.00000
     10       0.1445      2.00000
     11       0.4808      2.00000
     12       0.8879      2.00000
     13       0.9409      2.00000
     14       4.3119      2.04174
     15       4.8667     -0.02804
     16       4.9886     -0.00328
     17       6.5250     -0.00000
     18       6.9989     -0.00000
     19       7.5066     -0.00000
     20       8.4010     -0.00000
     21       8.9863     -0.00000
     22       9.6453     -0.00000
     23      10.3820      0.00000
     24      11.2101      0.00000
     25      13.1797      0.00000
     26      14.9450      0.00000
     27      15.1267      0.00000
     28      18.3457      0.00000
     29      18.5689      0.00000
     30      19.7370      0.00000
     31      20.3326      0.00000
     32      20.7178      0.00000

 k-point     6 :       0.4000    0.2000    0.0000
  band No.  band energies     occupation 
      1     -23.3513      2.00000
      2     -14.9964      2.00000
      3     -14.2541      2.00000
      4      -8.7678      2.00000
      5      -8.4094      2.00000
      6      -8.2922      2.00000
      7      -1.5251      2.00000
      8      -0.9853      2.00000
      9      -0.7155      2.00000
     10      -0.0569      2.00000
     11       0.8131      2.00000
     12       0.8524      2.00000
     13       1.3836      2.00000
     14       4.0848      2.01149
     15       4.7816     -0.06458
     16       5.0745     -0.00042
     17       5.2123     -0.00001
     18       7.0804     -0.00000
     19       8.2717     -0.00000
     20       9.2769     -0.00000
     21       9.7774     -0.00000
     22       9.8712     -0.00000
     23      11.0410      0.00000
     24      12.2012      0.00000
     25      13.2081      0.00000
     26      15.3980      0.00000
     27      15.4475      0.00000
     28      16.4025      0.00000
     29      17.3873      0.00000
     30      18.5368      0.00000
     31      20.1368      0.00000
     32      20.2581      0.00000

 k-point     7 :       0.0000    0.4000    0.0000
  band No.  band energies     occupation 
      1     -23.3830      2.00000
      2     -14.7616      2.00000
      3     -14.1597      2.00000
      4      -8.7814      2.00000
      5      -8.5107      2.00000
      6      -8.4076      2.00000
      7      -1.7388      2.00000
      8      -0.7352      2.00000
      9      -0.1832      2.00000
     10      -0.0133      2.00000
     11       0.0674      2.00000
     12       0.0974      2.00000
     13       0.3516      2.00000
     14       4.5658      0.50707
     15       5.8181     -0.00000
     16       5.8393     -0.00000
     17       5.8498     -0.00000
     18       7.0845     -0.00000
     19       7.6761     -0.00000
     20       8.6694     -0.00000
     21       9.1906     -0.00000
     22       9.6770     -0.00000
     23       9.8944     -0.00000
     24      11.6030      0.00000
     25      14.4508      0.00000
     26      15.1595      0.00000
     27      16.3056      0.00000
     28      18.0733      0.00000
     29      19.3566      0.00000
     30      19.7141      0.00000
     31      19.7396      0.00000
     32      20.0317      0.00000

 k-point     8 :       0.2000    0.4000    0.0000
  band No.  band energies     occupation 
      1     -23.3586      2.00000
      2     -14.7278      2.00000
      3     -14.2244      2.00000
      4      -8.9528      2.00000
      5      -8.4551      2.00000
      6      -8.4350      2.00000
      7      -1.7396      2.00000
      8      -0.7092      2.00000
      9      -0.2073      2.00000
     10      -0.1914      2.00000
     11       0.1727      2.00000
     12       0.2926      2.00000
     13       0.5315      2.00000
     14       4.2007      2.05360
     15       5.7274     -0.00000
     16       5.8465     -0.00000
     17       6.4343     -0.00000
     18       6.7932     -0.00000
     19       7.9660     -0.00000
     20       8.1526     -0.00000
     21       9.4812     -0.00000
     22       9.8567     -0.00000
     23      10.2281      0.00000
     24      11.9997      0.00000
     25      14.5895      0.00000
     26      15.5237      0.00000
     27      16.6313      0.00000
     28      17.1926      0.00000
     29      18.0044      0.00000
     30      18.5531      0.00000
     31      20.1998      0.00000
     32      20.5812      0.00000

 k-point     9 :       0.4000    0.4000    0.0000
  band No.  band energies     occupation 
      1     -23.3186      2.00000
      2     -14.6947      2.00000
      3     -14.3053      2.00000
      4      -9.1900      2.00000
      5      -8.5045      2.00000
      6      -8.3610      2.00000
      7      -1.7399      2.00000
      8      -1.0272      2.00000
      9      -0.6175      2.00000
     10       0.0164      2.00000
     11       0.3418      2.00000
     12       0.8157      2.00000
     13       1.2568      2.00000
     14       3.7220      2.00000
     15       5.0468     -0.00086
     16       5.6591     -0.00000
     17       5.8742     -0.00000
     18       7.4293     -0.00000
     19       7.7551     -0.00000
     20       8.8708     -0.00000
     21       9.5697     -0.00000
     22      10.9977      0.00000
     23      11.1085      0.00000
     24      12.8919      0.00000
     25      14.4396      0.00000
     26      15.9829      0.00000
     27      16.0893      0.00000
     28      16.2272      0.00000
     29      16.6777      0.00000
     30      17.0947      0.00000
     31      18.6247      0.00000
     32      21.3641      0.00000

 k-point    10 :       0.0000    0.2000    0.2000
  band No.  band energies     occupation 
      1     -23.4014      2.00000
      2     -14.6482      2.00000
      3     -14.3147      2.00000
      4      -8.6665      2.00000
      5      -8.5676      2.00000
      6      -8.4347      2.00000
      7      -1.4055      2.00000
      8      -0.8736      2.00000
      9      -0.5812      2.00000
     10      -0.0194      2.00000
     11       0.0429      2.00000
     12       0.1069      2.00000
     13       1.2182      2.00000
     14       4.8766     -0.02445
     15       5.0892     -0.00029
     16       5.2401     -0.00000
     17       6.7934     -0.00000
     18       7.3442     -0.00000
     19       7.8215     -0.00000
     20       8.2318     -0.00000
     21       8.7028     -0.00000
     22       9.8196     -0.00000
     23      10.4496      0.00000
     24      11.4426      0.00000
     25      13.1598      0.00000
     26      13.2228      0.00000
     27      16.8005      0.00000
     28      18.2705      0.00000
     29      18.9148      0.00000
     30      19.4926      0.00000
     31      20.4767      0.00000
     32      20.7244      0.00000

 k-point    11 :       0.2000    0.2000    0.2000
  band No.  band energies     occupation 
      1     -23.3750      2.00000
      2     -14.7240      2.00000
      3     -14.2862      2.00000
      4      -8.8224      2.00000
      5      -8.6105      2.00000
      6      -8.3081      2.00000
      7      -1.2611      2.00000
      8      -1.0800      2.00000
      9      -0.6895      2.00000
     10       0.0079      2.00000
     11       0.0552      2.00000
     12       0.4278      2.00000
     13       1.1704      2.00000
     14       4.6297      0.13744
     15       5.0014     -0.00248
     16       5.3420     -0.00000
     17       6.8266     -0.00000
     18       7.5880     -0.00000
     19       7.8380     -0.00000
     20       7.9197     -0.00000
     21       9.0097     -0.00000
     22       9.8609     -0.00000
     23      10.5533      0.00000
     24      11.9877      0.00000
     25      13.3630      0.00000
     26      13.6494      0.00000
     27      16.9368      0.00000
     28      17.6060      0.00000
     29      19.3510      0.00000
     30      19.4727      0.00000
     31      20.1699      0.00000
     32      20.1879      0.00000

 k-point    12 :       0.4000    0.2000    0.2000
  band No.  band energies     occupation 
      1     -23.3315      2.00000
      2     -14.8507      2.00000
      3     -14.2389      2.00000
      4      -8.7921      2.00000
      5      -8.6832      2.00000
      6      -8.4050      2.00000
      7      -1.2261      2.00000
      8      -1.0076      2.00000
      9      -0.7931      2.00000
     10      -0.0170      2.00000
     11       0.1226      2.00000
     12       0.9528      2.00000
     13       0.9631      2.00000
     14       4.4789      1.21451
     15       4.8782     -0.02389
     16       5.2533     -0.00000
     17       5.4646     -0.00000
     18       7.7524     -0.00000
     19       8.6762     -0.00000
     20       8.6989     -0.00000
     21       9.6891     -0.00000
     22      10.3266      0.00000
     23      10.3468      0.00000
     24      13.1973      0.00000
     25      13.4671      0.00000
     26      14.4776      0.00000
     27      16.0199      0.00000
     28      16.4078      0.00000
     29      17.5459      0.00000
     30      19.2732      0.00000
     31      20.1969      0.00000
     32      20.5926      0.00000

 k-point    13 :       0.0000    0.4000    0.2000
  band No.  band energies     occupation 
      1     -23.3595      2.00000
      2     -14.6252      2.00000
      3     -14.2373      2.00000
      4      -8.7136      2.00000
      5      -8.5382      2.00000
      6      -8.3499      2.00000
      7      -1.9810      2.00000
      8      -1.1338      2.00000
      9      -0.9702      2.00000
     10      -0.3858      2.00000
     11      -0.3684      2.00000
     12      -0.2032      2.00000
     13       1.1619      2.00000
     14       5.0473     -0.00085
     15       5.8647     -0.00000
     16       5.9253     -0.00000
     17       6.7140     -0.00000
     18       7.9619     -0.00000
     19       8.0868     -0.00000
     20       9.0875     -0.00000
     21       9.4172     -0.00000
     22       9.8810     -0.00000
     23      10.3505      0.00000
     24      11.9182      0.00000
     25      13.3628      0.00000
     26      14.1857      0.00000
     27      16.0841      0.00000
     28      17.4669      0.00000
     29      18.8086      0.00000
     30      19.3880      0.00000
     31      19.5988      0.00000
     32      20.3141      0.00000

 k-point    14 :       0.2000    0.4000    0.2000
  band No.  band energies     occupation 
      1     -23.3366      2.00000
      2     -14.5916      2.00000
      3     -14.2536      2.00000
      4      -8.9093      2.00000
      5      -8.6852      2.00000
      6      -8.3438      2.00000
      7      -1.8724      2.00000
      8      -1.1082      2.00000
      9      -0.8876      2.00000
     10      -0.2983      2.00000
     11      -0.1773      2.00000
     12       0.0475      2.00000
     13       1.1433      2.00000
     14       4.7580     -0.07038
     15       5.7545     -0.00000
     16       5.9892     -0.00000
     17       6.9753     -0.00000
     18       7.2988     -0.00000
     19       8.1533     -0.00000
     20       8.9220     -0.00000
     21       9.4634     -0.00000
     22       9.9778      0.00000
     23      10.6824      0.00000
     24      12.3275      0.00000
[...]

 k-point    11 :       0.2000    0.2000    0.2000
  band No.  band energies     occupation 
      1     -23.3713      2.00000
      2     -14.7239      2.00000
      3     -14.2982      2.00000
      4      -8.8186      2.00000
      5      -8.6045      2.00000
      6      -8.2977      2.00000
      7      -1.3013      2.00000
      8      -1.0903      2.00000
      9      -0.7015      2.00000
     10       0.0077      2.00000
     11       0.0398      2.00000
     12       0.4390      2.00000
     13       1.1363      2.00000
     14       4.5779      0.12666
     15       4.9337     -0.00332
     16       5.2523     -0.00000
     17       6.8240     -0.00000
     18       7.5106     -0.00000
     19       7.8301     -0.00000
     20       7.9073     -0.00000
     21       8.9560     -0.00000
     22       9.8465     -0.00000
     23      10.5772      0.00000
     24      11.9685      0.00000
     25      13.3419      0.00000
     26      13.5638      0.00000
     27      16.9142      0.00000
     28      17.5211      0.00000
     29      19.2795      0.00000
     30      19.4283      0.00000
     31      20.0486      0.00000
     32      20.3042      0.00000

 k-point    12 :       0.4000    0.2000    0.2000
  band No.  band energies     occupation 
      1     -23.3241      2.00000
      2     -14.8517      2.00000
      3     -14.2482      2.00000
      4      -8.7879      2.00000
      5      -8.6753      2.00000
      6      -8.4194      2.00000
      7      -1.2376      2.00000
      8      -1.0249      2.00000
      9      -0.8098      2.00000
     10      -0.0304      2.00000
     11       0.1103      2.00000
     12       0.9068      2.00000
     13       0.9668      2.00000
     14       4.4239      1.21933
     15       4.7964     -0.03440
     16       5.2378     -0.00000
     17       5.3861     -0.00000
     18       7.6056     -0.00000
     19       8.7247     -0.00000
     20       8.7586     -0.00000
     21       9.6677     -0.00000
     22      10.3121      0.00000
     23      10.3526      0.00000
     24      13.1729      0.00000
     25      13.4319      0.00000
     26      14.4153      0.00000
     27      16.0842      0.00000
     28      16.3931      0.00000
     29      17.5141      0.00000
     30      19.1694      0.00000
     31      20.0884      0.00000
     32      20.5799      0.00000

 k-point    13 :       0.0000    0.4000    0.2000
  band No.  band energies     occupation 
      1     -23.3595      2.00000
      2     -14.6357      2.00000
      3     -14.2561      2.00000
      4      -8.6791      2.00000
      5      -8.5345      2.00000
      6      -8.3305      2.00000
      7      -2.0082      2.00000
      8      -1.1396      2.00000
      9      -0.9716      2.00000
     10      -0.4032      2.00000
     11      -0.3564      2.00000
     12      -0.1764      2.00000
     13       1.1233      2.00000
     14       4.9908     -0.00089
     15       5.7782     -0.00000
     16       5.8206     -0.00000
     17       6.7098     -0.00000
     18       7.8586     -0.00000
     19       8.0769     -0.00000
     20       9.0119     -0.00000
     21       9.3245     -0.00000
     22       9.9498      0.00000
     23      10.3894      0.00000
     24      11.8767      0.00000
     25      13.3915      0.00000
     26      14.0879      0.00000
     27      15.9868      0.00000
     28      17.3546      0.00000
     29      18.6956      0.00000
     30      19.4652      0.00000
     31      19.5298      0.00000
     32      20.1508      0.00000

 k-point    14 :       0.2000    0.4000    0.2000
  band No.  band energies     occupation 
      1     -23.3345      2.00000
      2     -14.6000      2.00000
      3     -14.2715      2.00000
      4      -8.8838      2.00000
      5      -8.6804      2.00000
      6      -8.3385      2.00000
      7      -1.8823      2.00000
      8      -1.1045      2.00000
      9      -0.9035      2.00000
     10      -0.3233      2.00000
     11      -0.1616      2.00000
     12       0.0676      2.00000
     13       1.1050      2.00000
     14       4.6978     -0.07086
     15       5.6646     -0.00000
     16       5.8860     -0.00000
     17       6.9832     -0.00000
     18       7.3192     -0.00000
     19       8.0618     -0.00000
     20       8.8739     -0.00000
     21       9.4026     -0.00000
     22       9.9686      0.00000
     23      10.6916      0.00000
     24      12.2877      0.00000
     25      13.7144      0.00000
     26      14.4541      0.00000
     27      16.2434      0.00000
     28      16.9681      0.00000
     29      18.4123      0.00000
     30      18.9487      0.00000
     31      19.8619      0.00000
     32      20.0728      0.00000

 k-point    15 :       0.4000    0.4000    0.2000
  band No.  band energies     occupation 
      1     -23.2935      2.00000
      2     -14.5631      2.00000
      3     -14.2781      2.00000
      4      -9.1193      2.00000
      5      -8.7843      2.00000
      6      -8.5635      2.00000
      7      -1.7465      2.00000
      8      -0.8599      2.00000
      9      -0.6682      2.00000
     10      -0.2705      2.00000
     11      -0.0867      2.00000
     12       0.6102      2.00000
     13       1.0981      2.00000
     14       4.4361      1.11775
     15       5.1999     -0.00000
     16       5.5910     -0.00000
     17       5.9743     -0.00000
     18       8.0574     -0.00000
     19       8.4149     -0.00000
     20       9.1964     -0.00000
     21       9.4774     -0.00000
     22      10.0461      0.00000
     23      11.0959      0.00000
     24      13.2510      0.00000
     25      14.2983      0.00000
     26      15.1610      0.00000
     27      15.8074      0.00000
     28      16.6585      0.00000
     29      17.1115      0.00000
     30      17.7724      0.00000
     31      18.2643      0.00000
     32      20.2454      0.00000

 k-point    16 :       0.0000    0.4000    0.4000
  band No.  band energies     occupation 
      1     -23.3223      2.00000
      2     -14.4248      2.00000
      3     -14.3750      2.00000
      4      -8.5713      2.00000
      5      -8.5348      2.00000
      6      -8.2364      2.00000
      7      -2.6643      2.00000
      8      -1.7834      2.00000
      9      -1.4220      2.00000
     10      -0.8695      2.00000
     11      -0.6379      2.00000
     12      -0.6099      2.00000
     13       1.5746      2.00000
     14       5.7554     -0.00000
     15       5.8256     -0.00000
     16       6.1697     -0.00000
     17       8.3843     -0.00000
     18       8.6474     -0.00000
     19       9.3182     -0.00000
     20       9.8022     -0.00000
     21       9.9541      0.00000
     22      10.3252      0.00000
     23      11.1916      0.00000
     24      11.9207      0.00000
     25      12.0933      0.00000
     26      12.7042      0.00000
     27      15.6158      0.00000
     28      15.7299      0.00000
     29      16.2477      0.00000
     30      19.4635      0.00000
     31      19.4986      0.00000
     32      19.8537      0.00000

 k-point    17 :       0.2000    0.4000    0.4000
  band No.  band energies     occupation 
      1     -23.3000      2.00000
      2     -14.3853      2.00000
      3     -14.3193      2.00000
      4      -8.8348      2.00000
      5      -8.7239      2.00000
      6      -8.4762      2.00000
      7      -2.4194      2.00000
      8      -1.4233      2.00000
      9      -1.3625      2.00000
     10      -0.7710      2.00000
     11      -0.3743      2.00000
     12      -0.2762      2.00000
     13       1.5965      2.00000
     14       5.5919     -0.00000
     15       5.7496     -0.00000
     16       6.2496     -0.00000
     17       7.0057     -0.00000
     18       8.8637     -0.00000
     19       9.1043     -0.00000
     20       9.6419     -0.00000
     21       9.6655     -0.00000
     22      10.6627      0.00000
     23      10.9269      0.00000
     24      12.4262      0.00000
     25      12.7922      0.00000
     26      12.9933      0.00000
     27      15.6265      0.00000
     28      16.4237      0.00000
     29      16.6102      0.00000
     30      19.2342      0.00000
     31      19.6583      0.00000
     32      20.1390      0.00000

 k-point    18 :       0.4000    0.4000    0.4000
  band No.  band energies     occupation 
      1     -23.2634      2.00000
      2     -14.3211      2.00000
      3     -14.2237      2.00000
      4      -9.1126      2.00000
      5      -9.0211      2.00000
      6      -8.9379      2.00000
      7      -2.0037      2.00000
      8      -1.4184      2.00000
      9      -0.6352      2.00000
     10      -0.5000      2.00000
     11       0.0791      2.00000
     12       0.1043      2.00000
     13       1.5830      2.00000
     14       5.1095     -0.00003
     15       5.6363     -0.00000
     16       5.6455     -0.00000
     17       6.3685     -0.00000
     18       8.5855     -0.00000
     19       8.6524     -0.00000
     20       9.5695     -0.00000
     21       9.9740      0.00000
     22      10.6497      0.00000
     23      11.0198      0.00000
     24      13.1183      0.00000
     25      13.6722      0.00000
     26      14.0679      0.00000
     27      15.4243      0.00000
     28      16.7751      0.00000
     29      17.5301      0.00000
     30      17.8902      0.00000
     31      18.8170      0.00000
     32      19.4790      0.00000


--------------------------------------------------------------------------------------------------------


 soft charge-density along one line, spin component           1
         0         1         2         3         4         5         6         7         8         9
 total charge-density along one line
 
 pseudopotential strength for first ion, spin component:           1
  1.906  -5.637   0.000   0.000   0.000   0.000   0.000   0.000
 -5.637   1.083  -0.000  -0.000  -0.000   0.000   0.000   0.000
  0.000  -0.000  -7.513   0.000  -0.000   4.598   0.000  -0.000
  0.000  -0.000   0.000  -7.513   0.000   0.000   4.598   0.000
  0.000  -0.000  -0.000   0.000  -7.518  -0.000   0.000   4.592
  0.000   0.000   4.598   0.000  -0.000   6.559  -0.000   0.000
  0.000   0.000   0.000   4.598   0.000  -0.000   6.559  -0.000
  0.000   0.000  -0.000   0.000   4.592   0.000  -0.000   6.564
 -0.000   0.000   0.000  -0.000  -0.000   0.000  -0.000  -0.000
  0.000  -0.000   0.000   0.000  -0.000   0.000   0.000  -0.000
  0.002  -0.001   0.000   0.000  -0.000   0.000   0.000  -0.000
  0.000  -0.000  -0.000   0.000   0.000  -0.000   0.000   0.000
 -0.003   0.002  -0.000   0.000   0.000  -0.000   0.000   0.000
 -0.000   0.000   0.000  -0.000  -0.000   0.000  -0.000  -0.000
  0.000  -0.000   0.000   0.000  -0.000   0.000   0.000  -0.000
  0.002  -0.002   0.000   0.000  -0.000   0.000   0.000  -0.000
  0.000  -0.000  -0.000   0.000   0.000  -0.000   0.000   0.000
 -0.004   0.003  -0.000   0.000   0.000  -0.000   0.000   0.000
 total augmentation occupancy for first ion, spin component:           1
  2.003  -0.003   0.000   0.000   0.000   0.000   0.000   0.000   0.000  -0.000   0.011  -0.000  -0.019   0.000  -0.000  -0.004
 -0.003   0.402   0.000   0.000   0.000   0.000   0.000   0.000   0.000   0.000  -0.047   0.000   0.081   0.000   0.000   0.024
  0.000   0.000   2.012   0.000   0.000  -0.004   0.000   0.000   0.000   0.000   0.000   0.000   0.000   0.000   0.000   0.000
  0.000   0.000   0.000   2.012   0.000   0.000  -0.004  -0.000   0.000   0.000   0.000   0.000   0.000   0.000   0.000   0.000
  0.000   0.000   0.000   0.000   2.023   0.000  -0.000  -0.013   0.000   0.000   0.000   0.000   0.000   0.000   0.000   0.000
  0.000   0.000  -0.004  -0.000   0.000   0.010   0.000   0.000   0.000   0.000   0.000   0.000   0.000   0.000   0.000   0.000
  0.000   0.000  -0.000  -0.004   0.000   0.000   0.010   0.000   0.000   0.000   0.000   0.000   0.000   0.000   0.000   0.000
  0.000   0.000   0.000  -0.000  -0.013   0.000   0.000   0.011   0.000   0.000   0.000   0.000   0.000   0.000   0.000   0.000
  0.000   0.000   0.000   0.000   0.000   0.000   0.000   0.000   2.935   0.000   0.000  -0.000   0.000  -1.540  -0.000   0.000
  0.000   0.000   0.000   0.000   0.000   0.000   0.000   0.000   0.000   2.378  -0.000  -0.000  -0.000  -0.000  -1.190   0.000
  0.011  -0.047   0.000   0.000   0.000   0.000   0.000   0.000   0.000  -0.000   1.736   0.000   0.192  -0.000   0.000  -0.906
 -0.000   0.000   0.000   0.000   0.000   0.000   0.000   0.000   0.000   0.000   0.000   2.935  -0.000  -0.000  -0.000   0.000
 -0.019   0.081   0.000   0.000   0.000   0.000   0.000   0.000   0.000  -0.000   0.192   0.000   1.515   0.000   0.000  -0.098
  0.000   0.000   0.000   0.000   0.000   0.000   0.000   0.000  -1.540  -0.000   0.000  -0.000  -0.000   0.810   0.000   0.000
  0.000   0.000   0.000   0.000   0.000   0.000   0.000   0.000  -0.000  -1.190  -0.000  -0.000   0.000   0.000   0.600  -0.000
 -0.004   0.024   0.000   0.000   0.000   0.000   0.000   0.000   0.000   0.000  -0.906  -0.000  -0.098  -0.000   0.000   0.474
  0.000   0.000   0.000   0.000   0.000   0.000   0.000   0.000  -0.000   0.000   0.000  -1.540   0.000   0.000   0.000  -0.000
  0.008  -0.042   0.000   0.000   0.000   0.000   0.000   0.000   0.000   0.000  -0.098  -0.000  -0.792   0.000  -0.000   0.051


------------------------ aborting loop because EDIFF is reached ----------------------------------------


    CHARGE:  cpu time    0.0098: real time    0.0098
    FORLOC:  cpu time    0.0001: real time    0.0001
    FORNL :  cpu time    0.0417: real time    0.0417
    STRESS:  cpu time    0.3695: real time    0.3695
    FORCOR:  cpu time    0.0013: real time    0.0013
    FORHAR:  cpu time    0.0004: real time    0.0004
    MIXING:  cpu time    0.0002: real time    0.0002
    OFIELD:  cpu time    0.0000: real time    0.0000

  FORCE on cell =-STRESS in cart. coord.  units (eV):
  Direction    XX          YY          ZZ          XY          YZ          ZX
  --------------------------------------------------------------------------------------
  Alpha Z   163.73383   163.73383   163.73383
  Ewald    -562.22344  -448.50048  -448.50048    -0.00000    -0.00000    -0.00000
  Hartree    70.07408   135.59876   135.59876    -0.00000    -0.00000    -0.00000
  E(xc)    -112.48372  -112.75542  -112.75542     0.00000    -0.00000    -0.00000
  Local      79.10310   -97.62270   -97.62270    -0.00000    -0.00000     0.00000
  n-local   -90.15357   -88.52734   -86.71854     0.01727    -0.13934    -0.23405
  augment    10.77114    10.42692    10.42692     0.00000     0.00000     0.00000
  Kinetic   441.17744   429.05033   444.43780    -1.05000    -0.00486    -0.91478
  Fock        0.00000     0.00000     0.00000     0.00000     0.00000     0.00000
  -------------------------------------------------------------------------------------
  Total      -0.00114     0.00203     0.00203     0.00000     0.00000     0.00000
  in kB      -0.02771     0.04944     0.04944     0.00000     0.00000     0.00000
  external pressure =        0.02 kB  Pullay stress =        0.00 kB


 VOLUME and BASIS-vectors are now :
 -----------------------------------------------------------------------------
  energy-cutoff  :      500.00
  volume of cell :       65.84
      direct lattice vectors                 reciprocal lattice vectors
     3.998441531 -0.000000000  0.000000000     0.250097442 -0.000000000  0.000000000
     0.000000000  4.057968966  0.000000000     0.000000000  0.246428696  0.000000000
    -0.000000000 -0.000000000  4.057968966    -0.000000000 -0.000000000  0.246428696

  length of vectors
     3.998441531  4.057968966  4.057968966     0.250097442  0.246428696  0.246428696


 FORCES acting on ions
    electron-ion (+dipol)            ewald-force                    non-local-force                 convergence-correction
 -----------------------------------------------------------------------------------------------
   -.326E-14 -.356E-14 -.194E-14   0.634E-14 -.141E-14 -.587E-15   0.104E-33 0.108E-35 0.247E-31   -.962E-14 -.263E-14 0.282E-14
   0.191E-13 -.267E-12 0.219E-12   -.756E-15 0.266E-14 -.212E-14   -.595E-29 -.623E-31 0.000E+00   -.451E-14 -.310E-15 0.141E-14
   0.174E-12 -.627E-14 0.170E-12   -.171E-14 -.315E-15 0.502E-15   -.361E-30 0.623E-31 0.000E+00   0.697E-14 -.161E-14 0.797E-14
   0.178E-12 -.194E-12 -.408E-12   -.367E-14 -.546E-15 0.105E-14   -.458E-32 -.479E-34 0.000E+00   0.169E-14 0.456E-14 0.187E-13
   -.147E-14 0.497E-14 0.479E-14   -.116E-15 -.104E-14 0.865E-15   0.299E-34 0.313E-36 -.616E-32   0.274E-15 0.210E-15 -.259E-17
 -----------------------------------------------------------------------------------------------
   0.366E-12 -.466E-12 -.166E-13   0.902E-16 -.648E-15 -.293E-15   -.632E-29 -.945E-34 0.185E-31   -.520E-14 0.223E-15 0.309E-13
 
 
 POSITION                                       TOTAL-FORCE (eV/Angst)
 -----------------------------------------------------------------------------------
      0.00000     -0.00000      0.00000        -0.000000     -0.000000      0.000000
      1.99922      2.02898      2.02898         0.000000      0.000000      0.000000
      1.99922     -0.00000      2.02898         0.000000      0.000000      0.000000
      1.99922      2.02898      0.00000        -0.000000     -0.000000      0.000000
     -0.00000      2.02898      2.02898        -0.000000     -0.000000      0.000000
 -----------------------------------------------------------------------------------
    total drift:                                0.000000     -0.000000      0.000000


--------------------------------------------------------------------------------------------------------



  FREE ENERGIE OF THE ION-ELECTRON SYSTEM (eV)
  ---------------------------------------------------
  free  energy   TOTEN  =       -33.70302377 eV

  energy  without entropy=      -33.69880969  energy(sigma->0) =      -33.70161908
 
 d Force = 0.0000000E+00[ 0.000E+00, 0.000E+00]  d Energy = 0.1520922E-05-0.152E-05
 d Force = 0.0000000E+00[ 0.000E+00, 0.000E+00]  d Ewald  =-0.6964187E-01 0.696E-01


--------------------------------------------------------------------------------------------------------


    POTLOK:  cpu time    0.0043: real time    0.0043


--------------------------------------------------------------------------------------------------------


 Quasi-Newton relaxation of ions (Broydens 2nd method)
  g(Force)  = 0.532E-65   g(Stress)= 0.922E-07

 retain information from N=  2 steps
 eigenvalues of (default step * inverse Hessian matrix)
  average eigenvalue of G=   1.3129
 eigenvalue spectrum of G is  2.0297  0.5960


--------------------------------------------------------------------------------------------------------


  
 reached required accuracy - stopping structural energy minimisation
     LOOP+:  cpu time    0.8904: real time    1.2537
    4ORBIT:  cpu time    0.0000: real time    0.0000

 total amount of memory used by VASP on root node    50101. kBytes
========================================================================

   base      :      30000. kBytes
   nonl-proj :      18221. kBytes
   fftplans  :        112. kBytes
   grid      :        650. kBytes
   one-center:         77. kBytes
   wavefun   :       1041. kBytes
 
  
  
 General timing and accounting informations for this job:
 ========================================================
  
                  Total CPU time used (sec):       47.866
                            User time (sec):       47.388
                          System time (sec):        0.477
                         Elapsed time (sec):       86.902
  
                   Maximum memory used (kb):       61276.
                   Average memory used (kb):           0.
  
                          Minor page faults:        25161
                          Major page faults:            0
                 Voluntary context switches:         1893
