 running on   16 total cores
 distrk:  each k-point on   16 cores,    1 groups
 distr:  one band on    1 cores,   16 groups
 using from now: INCAR     
 vasp.5.4.1 05Feb16 (build Nov 07 2016 16:53:41) complex                        
  
 POSCAR found type information on POSCAR  Ba Ti O  H 
 POSCAR found :  4 types and       5 ions
 scaLAPACK will be used

 ----------------------------------------------------------------------------- 
|                                                                             |
|           W    W    AA    RRRRR   N    N  II  N    N   GGGG   !!!           |
|           W    W   A  A   R    R  NN   N  II  NN   N  G    G  !!!           |
|           W    W  A    A  R    R  N N  N  II  N N  N  G       !!!           |
|           W WW W  AAAAAA  RRRRR   N  N N  II  N  N N  G  GGG   !            |
|           WW  WW  A    A  R   R   N   NN  II  N   NN  G    G                |
|           W    W  A    A  R    R  N    N  II  N    N   GGGG   !!!           |
|                                                                             |
|      For optimal performance we recommend to set                            |
|        NCORE= 4 - approx SQRT( number of cores)                             |
|      NCORE specifies how many cores store one orbital (NPAR=cpu/NCORE).     |
|      This setting can  greatly improve the performance of VASP for DFT.     |
|      The default, NPAR=number of cores might be grossly inefficient         |
|      on modern multi-core architectures or massively parallel machines.     |
|      Do your own testing !!!!                                               |
|      Unfortunately you need to use the default for GW and RPA calculations. |
|      (for HF NCORE is supported but not extensively tested yet)             |
|                                                                             |
 ----------------------------------------------------------------------------- 

 LDA part: xc-table for Pade appr. of Perdew
 POSCAR, INCAR and KPOINTS ok, starting setup
 WARNING: small aliasing (wrap around) errors must be expected
 FFT: planning ...
 WAVECAR not read
 entering main loop
       N       E                     dE             d eps       ncg     rms          rms(c)
DAV:   1     0.120985021541E+03    0.12099E+03   -0.12148E+04  1152   0.765E+02
DAV:   2    -0.344987355205E+02   -0.15548E+03   -0.14171E+03  1488   0.176E+02
DAV:   3    -0.412837006376E+02   -0.67850E+01   -0.67579E+01  1344   0.406E+01
DAV:   4    -0.413347687402E+02   -0.51068E-01   -0.51060E-01  1584   0.355E+00
DAV:   5    -0.413354814185E+02   -0.71268E-03   -0.71268E-03  1296   0.386E-01BRMIX: very serious problems
 the old and the new charge density differ
 old charge density:    27.00000 new   27.00031
    0.233E+01
DAV:   6    -0.347299176444E+02    0.66056E+01   -0.25618E+01  1472   0.260E+01    0.986E+00
DAV:   7    -0.339390330353E+02    0.79088E+00   -0.98095E+00  1376   0.148E+01    0.769E+00
DAV:   8    -0.337906798716E+02    0.14835E+00   -0.17386E+00  1376   0.716E+00    0.219E+00
DAV:   9    -0.336968814976E+02    0.93798E-01   -0.32908E-01  1392   0.303E+00    0.302E-01
DAV:  10    -0.336974584983E+02   -0.57700E-03   -0.15735E-02  1584   0.626E-01    0.146E-01
DAV:  11    -0.336977561589E+02   -0.29766E-03   -0.23560E-03  1280   0.262E-01    0.844E-02
DAV:  12    -0.336977508832E+02    0.52757E-05   -0.86566E-04  1552   0.147E-01    0.390E-02
DAV:  13    -0.336977339434E+02    0.16940E-04   -0.13198E-04  1280   0.620E-02    0.146E-02
DAV:  14    -0.336977333425E+02    0.60095E-06   -0.74941E-06  1056   0.139E-02
   1 F= -.33697733E+02 E0= -.33696169E+02  d E =-.336977E+02
 BRION: g(F)=  0.000E+00 g(S)=  0.939E-02
 bond charge predicted
       N       E                     dE             d eps       ncg     rms          rms(c)
DAV:   1    -0.337186121817E+02   -0.20878E-01   -0.63913E-01  1376   0.401E+00    0.105E+00
DAV:   2    -0.337081741987E+02    0.10438E-01   -0.89880E-02  1520   0.155E+00    0.800E-01
DAV:   3    -0.337029193602E+02    0.52548E-02   -0.20142E-02  1376   0.735E-01    0.347E-01
DAV:   4    -0.337016137744E+02    0.13056E-02   -0.28986E-03  1792   0.245E-01    0.605E-02
DAV:   5    -0.337016294013E+02   -0.15627E-04   -0.10053E-04  1408   0.479E-02    0.283E-02
DAV:   6    -0.337016304069E+02   -0.10055E-05   -0.14002E-05  1424   0.216E-02
   2 F= -.33701630E+02 E0= -.33700216E+02  d E =-.389706E-02
 BRION: g(F)=  0.826E-66 g(S)=  0.270E-02 retain N=  1 mean eig= 0.72
 eig:   0.725
 bond charge predicted
       N       E                     dE             d eps       ncg     rms          rms(c)
DAV:   1    -0.337090311498E+02   -0.74017E-02   -0.11720E-01  1584   0.183E+00    0.626E-01
DAV:   2    -0.337045986438E+02    0.44325E-02   -0.30930E-02  1520   0.852E-01    0.335E-01
DAV:   3    -0.337029853422E+02    0.16133E-02   -0.75759E-03  1472   0.448E-01    0.103E-01
DAV:   4    -0.337027302612E+02    0.25508E-03   -0.57559E-04  1792   0.121E-01    0.408E-02
DAV:   5    -0.337027283836E+02    0.18776E-05   -0.80679E-05  1920   0.397E-02
   3 F= -.33702728E+02 E0= -.33701284E+02  d E =-.109798E-02
 BRION: g(F)=  0.841E-66 g(S)=  0.354E-03 retain N=  2 mean eig= 0.74
 eig:   0.474  1.001
 bond charge predicted
       N       E                     dE             d eps       ncg     rms          rms(c)
DAV:   1    -0.337040495182E+02   -0.13193E-02   -0.71710E-02  1344   0.131E+00    0.221E-01
DAV:   2    -0.337032759364E+02    0.77358E-03   -0.12631E-03  1328   0.202E-01    0.125E-01
DAV:   3    -0.337030482666E+02    0.22767E-03   -0.25115E-04  1552   0.762E-02    0.506E-02
DAV:   4    -0.337030234852E+02    0.24781E-04   -0.69152E-05  1472   0.521E-02    0.165E-02
DAV:   5    -0.337030206019E+02    0.28833E-05   -0.15052E-05   800   0.191E-02
   4 F= -.33703021E+02 E0= -.33701616E+02  d E =-.292218E-03
 BRION: g(F)=  0.152E-64 g(S)=  0.385E-05 retain N=  2 mean eig= 1.21
 eig:   0.747  1.678
 bond charge predicted
       N       E                     dE             d eps       ncg     rms          rms(c)
DAV:   1    -0.337030337812E+02   -0.10296E-04   -0.25366E-04  1520   0.838E-02    0.252E-02
DAV:   2    -0.337030252264E+02    0.85548E-05   -0.44349E-05  1264   0.333E-02
   5 F= -.33703025E+02 E0= -.33701625E+02  d E =-.462448E-05
 BRION: g(F)=  0.889E-65 g(S)=  0.440E-05 retain N=  2 mean eig= 1.20
 eig:   1.676  0.732
 bond charge predicted
       N       E                     dE             d eps       ncg     rms          rms(c)
DAV:   1    -0.337030288012E+02    0.49801E-05   -0.41626E-04  1392   0.101E-01    0.196E-02
DAV:   2    -0.337030233322E+02    0.54689E-05   -0.59077E-06  1008   0.132E-02
   6 F= -.33703023E+02 E0= -.33701617E+02  d E =0.189418E-05
 BRION: g(F)=  0.847E-65 g(S)=  0.383E-05 retain N=  2 mean eig= 2.91
 eig:   0.393  5.422
 bond charge predicted
       N       E                     dE             d eps       ncg     rms          rms(c)
DAV:   1    -0.337031337416E+02   -0.10494E-03   -0.82155E-03  1376   0.447E-01    0.796E-02
DAV:   2    -0.337030315781E+02    0.10216E-03   -0.20119E-04  1360   0.757E-02    0.381E-02
DAV:   3    -0.337030082377E+02    0.23340E-04   -0.56294E-05  1552   0.378E-02    0.237E-02
DAV:   4    -0.337030013843E+02    0.68534E-05   -0.15870E-05  1024   0.239E-02
   7 F= -.33703001E+02 E0= -.33701604E+02  d E =0.219479E-04
 BRION: g(F)=  0.214E-65 g(S)=  0.976E-05
 BRIONS problems: POTIM should be increased
 retain N=  1 mean eig= 9.30
 eig:   9.304
 bond charge predicted
       N       E                     dE             d eps       ncg     rms          rms(c)
DAV:   1    -0.337038759508E+02   -0.86771E-03   -0.57492E-02  1376   0.118E+00    0.215E-01
DAV:   2    -0.337031303568E+02    0.74559E-03   -0.14331E-03  1312   0.202E-01    0.103E-01
DAV:   3    -0.337029616732E+02    0.16868E-03   -0.42353E-04  1584   0.104E-01    0.643E-02
DAV:   4    -0.337029097300E+02    0.51943E-04   -0.12564E-04  1472   0.651E-02    0.193E-02
DAV:   5    -0.337029043576E+02    0.53724E-05   -0.18928E-05  1040   0.206E-02
   8 F= -.33702904E+02 E0= -.33701477E+02  d E =0.970267E-04
 BRION: g(F)=  0.238E-63 g(S)=  0.132E-03 retain N=  1 mean eig= 1.97
 eig:   1.967
 bond charge predicted
       N       E                     dE             d eps       ncg     rms          rms(c)
DAV:   1    -0.337036135641E+02   -0.70383E-03   -0.35319E-02  1376   0.927E-01    0.169E-01
DAV:   2    -0.337031593976E+02    0.45417E-03   -0.85723E-04  1312   0.156E-01    0.821E-02
DAV:   3    -0.337030527255E+02    0.10667E-03   -0.25441E-04  1584   0.802E-02    0.503E-02
DAV:   4    -0.337030220617E+02    0.30664E-04   -0.77374E-05  1472   0.511E-02    0.150E-02
DAV:   5    -0.337030196748E+02    0.23868E-05   -0.11415E-05   736   0.161E-02
   9 F= -.33703020E+02 E0= -.33701617E+02  d E =-.115317E-03
 BRION: g(F)=  0.448E-65 g(S)=  0.261E-05 retain N=  1 mean eig= 1.72
 eig:   1.723
 bond charge predicted
       N       E                     dE             d eps       ncg     rms          rms(c)
DAV:   1    -0.337030333964E+02   -0.11335E-04   -0.41881E-04  1408   0.104E-01    0.245E-02
DAV:   2    -0.337030245296E+02    0.88668E-05   -0.30506E-05  1216   0.277E-02
  10 F= -.33703025E+02 E0= -.33701624E+02  d E =-.485478E-05
 BRION: g(F)=  0.124E-64 g(S)=  0.789E-05 retain N=  2 mean eig= 1.55
 eig:   1.916  1.191
 bond charge predicted
       N       E                     dE             d eps       ncg     rms          rms(c)
DAV:   1    -0.337030253422E+02    0.80542E-05   -0.13062E-04  1376   0.574E-02    0.148E-02
DAV:   2    -0.337030229068E+02    0.24354E-05   -0.20381E-06   720   0.720E-03
  11 F= -.33703023E+02 E0= -.33701618E+02  d E =0.162286E-05
 BRION: g(F)=  0.238E-64 g(S)=  0.244E-05 retain N=  2 mean eig= 1.26
 eig:   0.140  2.379
 bond charge predicted
       N       E                     dE             d eps       ncg     rms          rms(c)
DAV:   1    -0.337030223427E+02    0.29995E-05   -0.69271E-05  1424   0.414E-02    0.905E-03
DAV:   2    -0.337030215778E+02    0.76485E-06   -0.54364E-06   640   0.128E-02
  12 F= -.33703022E+02 E0= -.33701613E+02  d E =0.132893E-05
 BRION: g(F)=  0.140E-64 g(S)=  0.261E-06 retain N=  1 mean eig= 0.55
 eig:   0.554
 bond charge predicted
       N       E                     dE             d eps       ncg     rms          rms(c)
DAV:   1    -0.337030217546E+02    0.58808E-06   -0.91199E-06   576   0.162E-02    0.510E-03
DAV:   2    -0.337030214787E+02    0.27592E-06   -0.20878E-06   576   0.856E-03
  13 F= -.33703021E+02 E0= -.33701612E+02  d E =0.991508E-07
 BRION: g(F)=  0.164E-64 g(S)=  0.122E-05 retain N=  1 mean eig= 0.37
 eig:   0.371
 bond charge predicted
       N       E                     dE             d eps       ncg     rms          rms(c)
DAV:   1    -0.337030210335E+02    0.72114E-06   -0.10839E-05   672   0.167E-02    0.300E-03
DAV:   2    -0.337030209769E+02    0.56533E-07   -0.53339E-07   576   0.411E-03
  14 F= -.33703021E+02 E0= -.33701612E+02  d E =0.501754E-06
 BRION: g(F)=  0.181E-64 g(S)=  0.106E-05 retain N=  2 mean eig= 0.72
 eig:   0.722  0.722
 bond charge predicted
       N       E                     dE             d eps       ncg     rms          rms(c)
DAV:   1    -0.337030213664E+02   -0.33298E-06   -0.13044E-05   864   0.191E-02    0.630E-03
DAV:   2    -0.337030208528E+02    0.51361E-06   -0.30140E-06   576   0.875E-03
  15 F= -.33703021E+02 E0= -.33701613E+02  d E =0.124095E-06
 BRION: g(F)=  0.235E-64 g(S)=  0.895E-06 retain N=  2 mean eig= 2.61
 eig:   0.215  5.003
 bond charge predicted
       N       E                     dE             d eps       ncg     rms          rms(c)
DAV:   1    -0.337031122882E+02   -0.90922E-04   -0.25188E-03  1520   0.263E-01    0.808E-02
DAV:   2    -0.337030281863E+02    0.84102E-04   -0.45378E-04  1424   0.105E-01    0.397E-02
DAV:   3    -0.337030037981E+02    0.24388E-04   -0.12208E-04  1456   0.566E-02    0.150E-02
DAV:   4    -0.337029977688E+02    0.60293E-05   -0.98049E-06  1040   0.176E-02
  16 F= -.33702998E+02 E0= -.33701590E+02  d E =0.230840E-04
 BRION: g(F)=  0.305E-63 g(S)=  0.198E-04 retain N=  2 mean eig= 1.77
 eig:   2.173  1.362
 bond charge predicted
       N       E                     dE             d eps       ncg     rms          rms(c)
DAV:   1    -0.337030594162E+02   -0.55618E-04   -0.12315E-03  1488   0.181E-01    0.492E-02
DAV:   2    -0.337030267600E+02    0.32656E-04   -0.15851E-04  1328   0.623E-02    0.228E-02
DAV:   3    -0.337030177526E+02    0.90075E-05   -0.42565E-05  1360   0.335E-02
  17 F= -.33703018E+02 E0= -.33701611E+02  d E =-.199838E-04
 BRION: g(F)=  0.585E-64 g(S)=  0.700E-04 retain N=  1 mean eig= 0.89
 eig:   0.894
 bond charge predicted
       N       E                     dE             d eps       ncg     rms          rms(c)
DAV:   1    -0.337031443086E+02   -0.11755E-03   -0.54676E-03  1424   0.381E-01    0.101E-01
DAV:   2    -0.337030068389E+02    0.13747E-03   -0.66260E-04  1344   0.128E-01    0.464E-02
DAV:   3    -0.337029714431E+02    0.35396E-04   -0.18128E-04  1408   0.688E-02    0.203E-02
DAV:   4    -0.337029616310E+02    0.98121E-05   -0.17617E-05  1408   0.230E-02
  18 F= -.33702962E+02 E0= -.33701553E+02  d E =0.561216E-04
 BRION: g(F)=  0.703E-63 g(S)=  0.710E-04 retain N=  2 mean eig= 3.37
 eig:   3.374  3.374
 bond charge predicted
       N       E                     dE             d eps       ncg     rms          rms(c)
DAV:   1    -0.337030113186E+02   -0.39875E-04   -0.77947E-04  1456   0.143E-01    0.366E-02
DAV:   2    -0.337029926300E+02    0.18689E-04   -0.85292E-05  1296   0.456E-02    0.165E-02
DAV:   3    -0.337029875749E+02    0.50551E-05   -0.22613E-05  1088   0.247E-02
  19 F= -.33702988E+02 E0= -.33701580E+02  d E =-.259439E-04
 BRION: g(F)=  0.382E-63 g(S)=  0.146E-03 retain N=  2 mean eig= 3.58
 eig:   4.955  2.212
 bond charge predicted
       N       E                     dE             d eps       ncg     rms          rms(c)
DAV:   1    -0.337036881039E+02   -0.69547E-03   -0.17615E-02  1408   0.690E-01    0.195E-01
DAV:   2    -0.337031738831E+02    0.51422E-03   -0.23553E-03  1408   0.241E-01    0.898E-02
DAV:   3    -0.337030402413E+02    0.13364E-03   -0.66237E-04  1440   0.132E-01    0.396E-02
DAV:   4    -0.337030054764E+02    0.34765E-04   -0.71848E-05  1824   0.453E-02    0.128E-02
DAV:   5    -0.337030052292E+02    0.24720E-06   -0.90099E-06  1168   0.146E-02
  20 F= -.33703005E+02 E0= -.33701600E+02  d E =-.176543E-04
 BRION: g(F)=  0.300E-63 g(S)=  0.395E-04 retain N=  1 mean eig= 0.72
 eig:   0.718
 bond charge predicted
       N       E                     dE             d eps       ncg     rms          rms(c)
DAV:   1    -0.337031033645E+02   -0.97888E-04   -0.18528E-03  1504   0.226E-01    0.678E-02
DAV:   2    -0.337030447020E+02    0.58663E-04   -0.32420E-04  1424   0.891E-02    0.330E-02
DAV:   3    -0.337030274740E+02    0.17228E-04   -0.85432E-05  1456   0.475E-02    0.126E-02
DAV:   4    -0.337030230664E+02    0.44076E-05   -0.70105E-06   816   0.149E-02
  21 F= -.33703023E+02 E0= -.33701619E+02  d E =-.178372E-04
 BRION: g(F)=  0.245E-64 g(S)=  0.897E-05 retain N=  2 mean eig= 1.85
 eig:   0.691  3.019
 bond charge predicted
       N       E                     dE             d eps       ncg     rms          rms(c)
DAV:   1    -0.337030281948E+02   -0.72080E-06   -0.16646E-04  1376   0.660E-02    0.165E-02
DAV:   2    -0.337030239044E+02    0.42904E-05   -0.11955E-05   800   0.180E-02
  22 F= -.33703024E+02 E0= -.33701621E+02  d E =-.838004E-06
 BRION: g(F)=  0.239E-65 g(S)=  0.346E-05 retain N=  1 mean eig= 0.39
 eig:   0.392
 bond charge predicted
       N       E                     dE             d eps       ncg     rms          rms(c)
DAV:   1    -0.337030293754E+02   -0.11806E-05   -0.34205E-04  1392   0.912E-02    0.204E-02
DAV:   2    -0.337030229503E+02    0.64251E-05   -0.98043E-06   912   0.172E-02
  23 F= -.33703023E+02 E0= -.33701618E+02  d E =0.954127E-06
 BRION: g(F)=  0.319E-67 g(S)=  0.290E-05
 BRIONS problems: POTIM should be increased
 retain N=  1 mean eig=13.35
 eig:  13.347
 bond charge predicted
       N       E                     dE             d eps       ncg     rms          rms(c)
DAV:   1    -0.337035013028E+02   -0.47193E-03   -0.39269E-02  1376   0.975E-01    0.181E-01
DAV:   2    -0.337029817133E+02    0.51959E-03   -0.92967E-04  1280   0.163E-01    0.890E-02
DAV:   3    -0.337028590709E+02    0.12264E-03   -0.29804E-04  1584   0.866E-02    0.542E-02
DAV:   4    -0.337028228739E+02    0.36197E-04   -0.89775E-05  1472   0.552E-02    0.159E-02
DAV:   5    -0.337028194992E+02    0.33747E-05   -0.12719E-05   800   0.169E-02
  24 F= -.33702819E+02 E0= -.33701385E+02  d E =0.203451E-03
 BRION: g(F)=  0.634E-63 g(S)=  0.223E-03 retain N=  1 mean eig= 1.47
 eig:   1.468
 bond charge predicted
       N       E                     dE             d eps       ncg     rms          rms(c)
DAV:   1    -0.337035293436E+02   -0.70647E-03   -0.32048E-02  1376   0.882E-01    0.157E-01
DAV:   2    -0.337031370855E+02    0.39226E-03   -0.70378E-04  1296   0.143E-01    0.791E-02
DAV:   3    -0.337030395406E+02    0.97545E-04   -0.19517E-04  1584   0.696E-02    0.450E-02
DAV:   4    -0.337030164653E+02    0.23075E-04   -0.63809E-05  1440   0.467E-02    0.139E-02
DAV:   5    -0.337030142594E+02    0.22059E-05   -0.10364E-05   624   0.154E-02
  25 F= -.33703014E+02 E0= -.33701603E+02  d E =-.194760E-03
 BRION: g(F)=  0.996E-65 g(S)=  0.929E-05 retain N=  1 mean eig= 1.78
 eig:   1.785
 bond charge predicted
       N       E                     dE             d eps       ncg     rms          rms(c)
DAV:   1    -0.337030424358E+02   -0.25970E-04   -0.18936E-03  1360   0.212E-01    0.328E-02
DAV:   2    -0.337030262299E+02    0.16206E-04   -0.36437E-05  1392   0.361E-02    0.234E-02
DAV:   3    -0.337030210505E+02    0.51794E-05   -0.79255E-06   832   0.171E-02
  26 F= -.33703021E+02 E0= -.33701615E+02  d E =-.679112E-05
 BRION: g(F)=  0.360E-65 g(S)=  0.375E-05 retain N=  2 mean eig= 2.73
 eig:   2.732  2.732
 bond charge predicted
       N       E                     dE             d eps       ncg     rms          rms(c)
DAV:   1    -0.337030271448E+02   -0.91485E-06   -0.39499E-04  1392   0.984E-02    0.216E-02
DAV:   2    -0.337030202052E+02    0.69396E-05   -0.17731E-05  1200   0.219E-02
  27 F= -.33703020E+02 E0= -.33701616E+02  d E =0.845338E-06
 BRION: g(F)=  0.201E-64 g(S)=  0.899E-05 retain N=  2 mean eig= 2.49
 eig:   3.130  1.853
 bond charge predicted
       N       E                     dE             d eps       ncg     rms          rms(c)
DAV:   1    -0.337030346402E+02   -0.74955E-05   -0.19451E-03  1392   0.223E-01    0.577E-02
DAV:   2    -0.337030047924E+02    0.29848E-04   -0.21687E-04  1504   0.745E-02    0.424E-02
DAV:   3    -0.337029910801E+02    0.13712E-04   -0.49917E-05  1376   0.375E-02    0.195E-02
DAV:   4    -0.337029860232E+02    0.50569E-05   -0.81516E-06   976   0.140E-02
  28 F= -.33702986E+02 E0= -.33701596E+02  d E =0.341820E-04
 BRION: g(F)=  0.849E-64 g(S)=  0.761E-04 retain N=  2 mean eig= 2.57
 eig:   4.367  0.778
 bond charge predicted
       N       E                     dE             d eps       ncg     rms          rms(c)
DAV:   1    -0.337030839955E+02   -0.92915E-04   -0.57731E-03  1376   0.373E-01    0.625E-02
DAV:   2    -0.337030216958E+02    0.62300E-04   -0.10240E-04  1312   0.570E-02    0.349E-02
DAV:   3    -0.337030040882E+02    0.17608E-04   -0.21564E-05  1440   0.226E-02    0.155E-02
DAV:   4    -0.337030016021E+02    0.24861E-05   -0.72507E-06   656   0.173E-02
  29 F= -.33703002E+02 E0= -.33701602E+02  d E =-.155789E-04
 BRION: g(F)=  0.325E-65 g(S)=  0.823E-04 retain N=  2 mean eig= 1.87
 eig:   0.792  2.957
 bond charge predicted
       N       E                     dE             d eps       ncg     rms          rms(c)
DAV:   1    -0.337033023964E+02   -0.29831E-03   -0.96388E-03  1408   0.502E-01    0.126E-01
DAV:   2    -0.337030739115E+02    0.22848E-03   -0.88512E-04  1280   0.148E-01    0.551E-02
DAV:   3    -0.337030204223E+02    0.53489E-04   -0.25996E-04  1392   0.829E-02    0.292E-02
DAV:   4    -0.337030033590E+02    0.17063E-04   -0.32942E-05  1680   0.316E-02    0.880E-03
DAV:   5    -0.337030030763E+02    0.28268E-06   -0.47519E-06   704   0.105E-02
  30 F= -.33703003E+02 E0= -.33701607E+02  d E =-.147422E-05
 BRION: g(F)=  0.566E-64 g(S)=  0.167E-04 retain N=  2 mean eig= 2.00
 eig:   3.000  0.995
 bond charge predicted
       N       E                     dE             d eps       ncg     rms          rms(c)
DAV:   1    -0.337030904009E+02   -0.87042E-04   -0.54201E-03  1376   0.360E-01    0.577E-02
DAV:   2    -0.337030406463E+02    0.49755E-04   -0.91909E-05  1328   0.557E-02    0.373E-02
DAV:   3    -0.337030239272E+02    0.16719E-04   -0.15453E-05  1216   0.225E-02    0.117E-02
DAV:   4    -0.337030222449E+02    0.16822E-05   -0.80821E-06   640   0.144E-02
  31 F= -.33703022E+02 E0= -.33701613E+02  d E =-.191686E-04
 BRION: g(F)=  0.606E-65 g(S)=  0.337E-05 retain N=  2 mean eig= 1.46
 eig:   1.459  1.459
 bond charge predicted
       N       E                     dE             d eps       ncg     rms          rms(c)
DAV:   1    -0.337030263524E+02   -0.24253E-05   -0.76398E-05  1392   0.475E-02    0.162E-02
DAV:   2    -0.337030237658E+02    0.25866E-05   -0.20617E-05   736   0.221E-02
  32 F= -.33703024E+02 E0= -.33701619E+02  d E =-.152092E-05
 BRION: g(F)=  0.532E-65 g(S)=  0.922E-07 retain N=  2 mean eig= 1.31
 eig:   2.030  0.596
 reached required accuracy - stopping structural energy minimisation
