  40  40   0   0
  0.1316796E+02  0.7996717E-09  0.8115837E-09  0.8115837E-09  0.5000000E-15
  1.000000000000000E-004
  CAR 
 unknown system                          
     10.04332059    -25.43941505  301      4.39956477      1.00000000
    -25.439  0.0000E+00  0.0000E+00
    -25.321  0.0000E+00  0.0000E+00
    -25.203  0.0000E+00  0.0000E+00
    -25.085 -0.1625E-28 -0.1922E-29
    -24.966 -0.2040E-24 -0.2412E-25
    -24.848 -0.1263E-20 -0.1493E-21
    -24.730 -0.3919E-17 -0.4636E-18
    -24.611 -0.6072E-14 -0.7187E-15
    -24.493 -0.4627E-11 -0.5479E-12
    -24.375 -0.1811E-08 -0.2147E-09
    -24.257 -0.3562E-06 -0.4234E-07
    -24.138 -0.3516E-04 -0.4201E-05
    -24.020 -0.1731E-02 -0.2089E-03
    -23.902 -0.4177E-01 -0.5149E-02
    -23.784 -0.4717E+00 -0.6094E-01
    -23.665 -0.2123E+01 -0.3120E+00
    -23.547 -0.2526E+00 -0.3419E+00
    -23.429  0.2285E+02  0.2360E+01
    -23.310  0.5683E+02  0.9082E+01
    -23.192  0.4929E+02  0.1491E+02
    -23.074  0.1322E+02  0.1648E+02
    -22.956 -0.2207E+01  0.1621E+02
    -22.837 -0.1551E+01  0.1603E+02
    -22.719 -0.2454E+00  0.1600E+02
    -22.601 -0.1640E-01  0.1600E+02
    -22.483 -0.5144E-03  0.1600E+02
    -22.364 -0.7856E-05  0.1600E+02
    -22.246 -0.5928E-07  0.1600E+02
    -22.128 -0.2225E-09  0.1600E+02
    -22.009 -0.4208E-12  0.1600E+02
    -21.891  0.0000E+00  0.1600E+02
    -21.773  0.0000E+00  0.1600E+02
    -21.655  0.0000E+00  0.1600E+02
    -21.536  0.0000E+00  0.1600E+02
    -21.418  0.0000E+00  0.1600E+02
    -21.300  0.0000E+00  0.1600E+02
    -21.181  0.0000E+00  0.1600E+02
    -21.063  0.0000E+00  0.1600E+02
    -20.945  0.0000E+00  0.1600E+02
    -20.827  0.0000E+00  0.1600E+02
    -20.708  0.0000E+00  0.1600E+02
    -20.590  0.0000E+00  0.1600E+02
    -20.472  0.0000E+00  0.1600E+02
    -20.354  0.0000E+00  0.1600E+02
    -20.235  0.0000E+00  0.1600E+02
    -20.117  0.0000E+00  0.1600E+02
    -19.999  0.0000E+00  0.1600E+02
    -19.880  0.0000E+00  0.1600E+02
    -19.762  0.0000E+00  0.1600E+02
    -19.644  0.0000E+00  0.1600E+02
    -19.526  0.0000E+00  0.1600E+02
    -19.407  0.0000E+00  0.1600E+02
    -19.289  0.0000E+00  0.1600E+02
    -19.171  0.0000E+00  0.1600E+02
    -19.053  0.0000E+00  0.1600E+02
    -18.934  0.0000E+00  0.1600E+02
    -18.816  0.0000E+00  0.1600E+02
    -18.698  0.0000E+00  0.1600E+02
    -18.579  0.0000E+00  0.1600E+02
    -18.461  0.0000E+00  0.1600E+02
    -18.343  0.0000E+00  0.1600E+02
    -18.225  0.0000E+00  0.1600E+02
    -18.106  0.0000E+00  0.1600E+02
    -17.988  0.0000E+00  0.1600E+02
    -17.870  0.0000E+00  0.1600E+02
    -17.751  0.0000E+00  0.1600E+02
    -17.633  0.0000E+00  0.1600E+02
    -17.515  0.0000E+00  0.1600E+02
    -17.397  0.0000E+00  0.1600E+02
    -17.278  0.0000E+00  0.1600E+02
    -17.160  0.0000E+00  0.1600E+02
    -17.042  0.0000E+00  0.1600E+02
    -16.924  0.0000E+00  0.1600E+02
    -16.805 -0.4008E-28  0.1600E+02
    -16.687 -0.3837E-24  0.1600E+02
    -16.569 -0.1813E-20  0.1600E+02
    -16.450 -0.4230E-17  0.1600E+02
    -16.332 -0.4734E-14  0.1600E+02
    -16.214 -0.2670E-11  0.1600E+02
    -16.096 -0.7432E-09  0.1600E+02
    -15.977 -0.1021E-06  0.1600E+02
    -15.859 -0.6959E-05  0.1600E+02
    -15.741 -0.2370E-03  0.1600E+02
    -15.623 -0.4080E-02  0.1600E+02
    -15.504 -0.3546E-01  0.1600E+02
    -15.386 -0.1447E+00  0.1598E+02
    -15.268 -0.1421E+00  0.1596E+02
    -15.149  0.8621E+00  0.1606E+02
    -15.031  0.3541E+01  0.1648E+02
    -14.913  0.8929E+01  0.1754E+02
    -14.795  0.2102E+02  0.2002E+02
    -14.676  0.3236E+02  0.2385E+02
    -14.558  0.2837E+02  0.2721E+02
    -14.440  0.2882E+02  0.3062E+02
    -14.321  0.5526E+02  0.3715E+02
    -14.203  0.6465E+02  0.4480E+02
    -14.085  0.2947E+02  0.4828E+02
    -13.967  0.9127E+00  0.4839E+02
    -13.848 -0.2600E+01  0.4808E+02
    -13.730 -0.6511E+00  0.4801E+02
    -13.612 -0.6314E-01  0.4800E+02
    -13.494 -0.2902E-02  0.4800E+02
    -13.375 -0.6748E-04  0.4800E+02
    -13.257 -0.8159E-06  0.4800E+02
    -13.139 -0.5172E-08  0.4800E+02
    -13.020 -0.1712E-10  0.4800E+02
    -12.902 -0.2726E-13  0.4800E+02
    -12.784  0.0000E+00  0.4800E+02
    -12.666  0.0000E+00  0.4800E+02
    -12.547  0.0000E+00  0.4800E+02
    -12.429  0.0000E+00  0.4800E+02
    -12.311  0.0000E+00  0.4800E+02
    -12.193  0.0000E+00  0.4800E+02
    -12.074  0.0000E+00  0.4800E+02
    -11.956  0.0000E+00  0.4800E+02
    -11.838  0.0000E+00  0.4800E+02
    -11.719  0.0000E+00  0.4800E+02
    -11.601  0.0000E+00  0.4800E+02
    -11.483  0.0000E+00  0.4800E+02
    -11.365  0.0000E+00  0.4800E+02
    -11.246  0.0000E+00  0.4800E+02
    -11.128  0.0000E+00  0.4800E+02
    -11.010  0.0000E+00  0.4800E+02
    -10.891 -0.4357E-28  0.4800E+02
    -10.773 -0.4509E-24  0.4800E+02
    -10.655 -0.2316E-20  0.4800E+02
    -10.537 -0.5903E-17  0.4800E+02
    -10.418 -0.7331E-14  0.4800E+02
    -10.300 -0.4523E-11  0.4800E+02
    -10.182 -0.1396E-08  0.4800E+02
    -10.064 -0.2128E-06  0.4800E+02
     -9.945 -0.1598E-04  0.4800E+02
     -9.827 -0.5890E-03  0.4800E+02
     -9.709 -0.1059E-01  0.4800E+02
     -9.590 -0.9201E-01  0.4799E+02
     -9.472 -0.3713E+00  0.4794E+02
     -9.354 -0.4507E+00  0.4789E+02
     -9.236  0.2256E+01  0.4816E+02
     -9.117  0.1237E+02  0.4962E+02
     -8.999  0.2611E+02  0.5271E+02
     -8.881  0.3259E+02  0.5656E+02
     -8.763  0.4231E+02  0.6157E+02
     -8.644  0.6220E+02  0.6892E+02
     -8.526  0.7306E+02  0.7757E+02
     -8.408  0.7129E+02  0.8600E+02
     -8.289  0.5730E+02  0.9277E+02
     -8.171  0.2695E+02  0.9596E+02
     -8.053  0.3226E+01  0.9634E+02
     -7.935 -0.1990E+01  0.9611E+02
     -7.816 -0.7817E+00  0.9601E+02
     -7.698 -0.1128E+00  0.9600E+02
     -7.580 -0.8058E-02  0.9600E+02
     -7.461 -0.3090E-03  0.9600E+02
     -7.343 -0.6468E-05  0.9600E+02
     -7.225 -0.7275E-07  0.9600E+02
     -7.107 -0.4286E-09  0.9600E+02
     -6.988 -0.1293E-11  0.9600E+02
     -6.870 -0.1947E-14  0.9600E+02
     -6.752  0.0000E+00  0.9600E+02
     -6.634  0.0000E+00  0.9600E+02
     -6.515  0.0000E+00  0.9600E+02
     -6.397  0.0000E+00  0.9600E+02
     -6.279  0.0000E+00  0.9600E+02
     -6.160  0.0000E+00  0.9600E+02
     -6.042  0.0000E+00  0.9600E+02
     -5.924  0.0000E+00  0.9600E+02
     -5.806  0.0000E+00  0.9600E+02
     -5.687  0.0000E+00  0.9600E+02
     -5.569  0.0000E+00  0.9600E+02
     -5.451  0.0000E+00  0.9600E+02
     -5.333  0.0000E+00  0.9600E+02
     -5.214  0.0000E+00  0.9600E+02
     -5.096  0.0000E+00  0.9600E+02
     -4.978  0.0000E+00  0.9600E+02
     -4.859  0.0000E+00  0.9600E+02
     -4.741  0.0000E+00  0.9600E+02
     -4.623 -0.4289E-31  0.9600E+02
     -4.505 -0.6715E-27  0.9600E+02
     -4.386 -0.5194E-23  0.9600E+02
     -4.268 -0.1983E-19  0.9600E+02
     -4.150 -0.3732E-16  0.9600E+02
     -4.031 -0.3346E-13  0.9600E+02
     -3.913 -0.1510E-10  0.9600E+02
     -3.795 -0.3321E-08  0.9600E+02
     -3.677 -0.3536E-06  0.9600E+02
     -3.558 -0.1798E-04  0.9600E+02
     -3.440 -0.4264E-03  0.9600E+02
     -3.322 -0.4465E-02  0.9600E+02
     -3.204 -0.1750E-01  0.9600E+02
     -3.085 -0.1400E-02  0.9600E+02
     -2.967  0.1343E+00  0.9601E+02
     -2.849  0.3763E+00  0.9606E+02
     -2.730  0.7771E+00  0.9615E+02
     -2.612  0.1493E+01  0.9633E+02
     -2.494  0.2507E+01  0.9662E+02
     -2.376  0.3152E+01  0.9700E+02
     -2.257  0.3275E+01  0.9738E+02
     -2.139  0.5784E+01  0.9807E+02
     -2.021  0.1059E+02  0.9932E+02
     -1.903  0.1293E+02  0.1008E+03
     -1.784  0.1246E+02  0.1023E+03
     -1.666  0.1710E+02  0.1043E+03
     -1.548  0.2950E+02  0.1078E+03
     -1.429  0.3595E+02  0.1121E+03
     -1.311  0.2869E+02  0.1155E+03
     -1.193  0.1946E+02  0.1178E+03
     -1.075  0.2188E+02  0.1204E+03
     -0.956  0.3426E+02  0.1244E+03
     -0.838  0.4434E+02  0.1297E+03
     -0.720  0.4780E+02  0.1353E+03
     -0.602  0.4302E+02  0.1404E+03
     -0.483  0.3370E+02  0.1444E+03
     -0.365  0.3097E+02  0.1481E+03
     -0.247  0.3851E+02  0.1526E+03
     -0.128  0.5644E+02  0.1593E+03
     -0.010  0.6457E+02  0.1669E+03
      0.108  0.5008E+02  0.1728E+03
      0.226  0.3548E+02  0.1770E+03
      0.345  0.2691E+02  0.1802E+03
      0.463  0.2360E+02  0.1830E+03
      0.581  0.2197E+02  0.1856E+03
      0.700  0.1398E+02  0.1873E+03
      0.818  0.1531E+02  0.1891E+03
      0.936  0.3409E+02  0.1931E+03
      1.054  0.4260E+02  0.1981E+03
      1.173  0.2831E+02  0.2015E+03
      1.291  0.1390E+02  0.2031E+03
      1.409  0.1216E+02  0.2046E+03
      1.527  0.1381E+02  0.2062E+03
      1.646  0.9662E+01  0.2074E+03
      1.764  0.4089E+01  0.2078E+03
      1.882  0.1351E+01  0.2080E+03
      2.001  0.1806E+00  0.2080E+03
      2.119 -0.1174E+00  0.2080E+03
      2.237 -0.5712E-01  0.2080E+03
      2.355 -0.9822E-02  0.2080E+03
      2.474 -0.7862E-03  0.2080E+03
      2.592 -0.3077E-04  0.2080E+03
      2.710 -0.7958E-06  0.2080E+03
      2.828 -0.1272E-04  0.2080E+03
      2.947 -0.3778E-03  0.2080E+03
      3.065 -0.5114E-02  0.2080E+03
      3.183 -0.2898E-01  0.2080E+03
      3.302 -0.4713E-01  0.2080E+03
      3.420  0.1248E+00  0.2080E+03
      3.538  0.7497E+00  0.2081E+03
      3.656  0.2040E+01  0.2083E+03
      3.775  0.3325E+01  0.2087E+03
      3.893  0.3090E+01  0.2091E+03
      4.011  0.2265E+01  0.2094E+03
      4.130  0.6591E+01  0.2101E+03
      4.248  0.1882E+02  0.2124E+03
      4.366  0.2471E+02  0.2153E+03
      4.484  0.1935E+02  0.2176E+03
      4.603  0.2269E+02  0.2203E+03
      4.721  0.3172E+02  0.2240E+03
      4.839  0.2919E+02  0.2275E+03
      4.957  0.1751E+02  0.2295E+03
      5.076  0.1023E+02  0.2307E+03
      5.194  0.1318E+02  0.2323E+03
      5.312  0.2168E+02  0.2349E+03
      5.431  0.2975E+02  0.2384E+03
      5.549  0.3610E+02  0.2427E+03
      5.667  0.4234E+02  0.2477E+03
      5.785  0.4697E+02  0.2532E+03
      5.904  0.4131E+02  0.2581E+03
      6.022  0.2577E+02  0.2612E+03
      6.140  0.1252E+02  0.2626E+03
      6.258  0.8247E+01  0.2636E+03
      6.377  0.9963E+01  0.2648E+03
      6.495  0.1177E+02  0.2662E+03
      6.613  0.1090E+02  0.2675E+03
      6.732  0.1344E+02  0.2691E+03
      6.850  0.1962E+02  0.2714E+03
      6.968  0.1565E+02  0.2732E+03
      7.086  0.8640E+01  0.2743E+03
      7.205  0.1436E+02  0.2760E+03
      7.323  0.2316E+02  0.2787E+03
      7.441  0.1985E+02  0.2810E+03
      7.560  0.1132E+02  0.2824E+03
      7.678  0.9949E+01  0.2836E+03
      7.796  0.1486E+02  0.2853E+03
      7.914  0.1487E+02  0.2871E+03
      8.033  0.7020E+01  0.2879E+03
      8.151  0.1256E+01  0.2881E+03
      8.269 -0.1797E+00  0.2880E+03
      8.387 -0.1867E+00  0.2880E+03
      8.506 -0.5348E-01  0.2880E+03
      8.624 -0.6835E-02  0.2880E+03
      8.742 -0.4053E-03  0.2880E+03
      8.861 -0.1136E-04  0.2880E+03
      8.979 -0.1528E-06  0.2880E+03
      9.097 -0.9941E-09  0.2880E+03
      9.215 -0.3151E-11  0.2880E+03
      9.334 -0.5006E-14  0.2880E+03
      9.452  0.0000E+00  0.2880E+03
      9.570  0.0000E+00  0.2880E+03
      9.688  0.0000E+00  0.2880E+03
      9.807  0.0000E+00  0.2880E+03
      9.925  0.0000E+00  0.2880E+03
     10.043  0.0000E+00  0.2880E+03
