   40   40    1    1
  0.1316796E+02  0.7996717E-09  0.8115837E-09  0.8115837E-09  0.5000000E-15
  1.000000000000000E-004
  CAR 
 unknown system                          
    216     10    144
 
  0.3742002E-15  0.3742002E-15  0.3742002E-15  0.3703704E-01
    1      -23.439415   1.000000
    2      -23.364060   1.000000
    3      -23.364048   1.000000
    4      -23.341117   1.000000
    5      -23.298741   1.000000
    6      -23.288160   1.000000
    7      -23.288113   1.000000
    8      -23.235942   1.000000
    9      -15.183604   1.000000
   10      -14.787726   1.000000
   11      -14.787703   1.000000
   12      -14.776480   1.000000
   13      -14.610704   1.000000
   14      -14.610678   1.000000
   15      -14.389900   1.000000
   16      -14.389881   1.000000
   17      -14.383755   1.000000
   18      -14.383736   1.000000
   19      -14.305003   1.000000
   20      -14.265732   1.000000
   21      -14.208716   1.000000
   22      -14.208707   1.000000
   23      -14.153987   1.000000
   24      -14.153974   1.000000
   25       -9.260781   1.000000
   26       -9.260765   1.000000
   27       -9.190530   1.000000
   28       -9.121118   1.000000
   29       -9.121118   1.000000
   30       -8.746272   1.000000
   31       -8.746262   1.000000
   32       -8.578240   1.000000
   33       -8.578224   1.000000
   34       -8.576273   1.000000
   35       -8.576237   1.000000
   36       -8.520509   1.000000
   37       -8.520380   1.000000
   38       -8.508828   1.000000
   39       -8.508727   1.000000
   40       -8.499459   1.000000
   41       -8.412202   1.000000
   42       -8.412198   1.000000
   43       -8.366992   1.000000
   44       -8.366973   1.000000
   45       -8.327449   1.000000
   46       -8.327416   1.000000
   47       -8.196603   1.000000
   48       -8.154317   1.000000
   49       -2.918343   1.000000
   50       -2.145796   1.000000
   51       -1.996304   1.000000
   52       -1.950031   1.000000
   53       -1.901981   1.000000
   54       -1.901943   1.000000
   55       -1.889984   1.000000
   56       -1.889945   1.000000
   57       -1.709077   1.000000
   58       -1.581867   1.000000
   59       -1.564119   1.000000
   60       -1.045653   1.000000
   61       -1.045357   1.000000
   62       -0.971643   1.000000
   63       -0.865349   1.000000
   64       -0.865342   1.000000
   65       -0.741212   1.000000
   66       -0.741192   1.000000
   67       -0.703950   1.000000
   68       -0.703939   1.000000
   69       -0.701526   1.000000
   70       -0.701477   1.000000
   71       -0.615976   1.000000
   72       -0.432839   1.000000
   73       -0.229376   1.000000
   74       -0.229348   1.000000
   75       -0.202023   1.000000
   76       -0.199297   1.000000
   77       -0.199296   1.000000
   78       -0.067499   1.000000
   79       -0.067480   1.000000
   80        0.045574   1.000000
   81        0.045719   1.000000
   82        0.070515   1.000000
   83        0.070534   1.000000
   84        0.097578   1.000000
   85        0.097776   1.000000
   86        0.159575   1.000000
   87        0.159590   1.000000
   88        0.188774   1.000000
   89        0.188823   1.000000
   90        0.220340   1.000000
   91        0.220357   1.000000
   92        0.572405   1.000000
   93        0.665497   1.000000
   94        0.950425   1.000000
   95        0.950444   1.000000
   96        1.162821   1.000000
   97        1.162824   1.000000
   98        1.344482   1.000000
   99        1.344485   1.000000
  100        1.485634   1.000000
  101        1.485728   1.000000
  102        1.673614   1.000000
  103        1.776888   1.000000
  104        1.844235   1.000000
  105        3.502199   1.000000
  106        3.502242   1.000000
  107        4.204606   1.022310
  108        4.204615   1.022304
  109        4.213917   1.015988
  110        4.309575   0.841383
  111        4.309593   0.841330
  112        4.428952   0.377129
  113        4.511696   0.098424
  114        4.511721   0.098361
  115        4.638841  -0.035329
  116        4.638884  -0.035331
  117        4.761707  -0.014023
  118        4.934044  -0.000518
  119        5.638146  -0.000000
  120        5.638160  -0.000000
  121        5.725152  -0.000000
  122        5.725165  -0.000000
  123        5.749075  -0.000000
  124        5.749176  -0.000000
  125        5.842487  -0.000000
  126        5.842512  -0.000000
  127        5.861176  -0.000000
  128        5.861322  -0.000000
  129        5.887664  -0.000000
  130        5.887670  -0.000000
  131        5.906659  -0.000000
  132        5.906665  -0.000000
  133        6.283199  -0.000000
  134        6.361668  -0.000000
  135        6.367614  -0.000000
  136        6.511874  -0.000000
  137        6.547274  -0.000000
  138        6.644597  -0.000000
  139        6.947944  -0.000000
  140        6.947970  -0.000000
  141        7.256453  -0.000000
  142        7.256522  -0.000000
  143        7.355765  -0.000000
  144        7.500064  -0.000000
 
  0.3333333E+00  0.3742002E-15  0.3742002E-15  0.7407407E-01
    1      -23.415333   1.000000
    2      -23.366296   1.000000
    3      -23.345386   1.000000
    4      -23.345234   1.000000
    5      -23.307538   1.000000
    6      -23.307385   1.000000
    7      -23.283041   1.000000
    8      -23.251772   1.000000
    9      -15.084122   1.000000
   10      -14.880532   1.000000
   11      -14.745414   1.000000
   12      -14.745391   1.000000
   13      -14.657079   1.000000
   14      -14.657054   1.000000
   15      -14.346929   1.000000
   16      -14.346907   1.000000
   17      -14.325571   1.000000
   18      -14.325542   1.000000
   19      -14.295303   1.000000
   20      -14.275670   1.000000
   21      -14.256517   1.000000
   22      -14.256515   1.000000
   23      -14.210540   1.000000
   24      -14.210531   1.000000
   25       -9.133975   1.000000
   26       -9.133961   1.000000
   27       -8.975225   1.000000
   28       -8.975221   1.000000
   29       -8.973588   1.000000
   30       -8.877020   1.000000
   31       -8.877007   1.000000
   32       -8.675502   1.000000
   33       -8.675494   1.000000
   34       -8.536751   1.000000
   35       -8.536716   1.000000
   36       -8.533535   1.000000
   37       -8.533535   1.000000
   38       -8.482384   1.000000
   39       -8.465379   1.000000
   40       -8.465269   1.000000
   41       -8.454748   1.000000
   42       -8.454632   1.000000
   43       -8.428560   1.000000
   44       -8.428385   1.000000
   45       -8.414862   1.000000
   46       -8.374648   1.000000
   47       -8.374609   1.000000
   48       -8.242764   1.000000
   49       -2.736614   1.000000
   50       -2.348567   1.000000
   51       -1.898826   1.000000
   52       -1.898785   1.000000
   53       -1.893536   1.000000
   54       -1.893458   1.000000
   55       -1.830411   1.000000
   56       -1.698670   1.000000
   57       -1.577463   1.000000
   58       -1.568554   1.000000
   59       -1.568256   1.000000
   60       -0.911013   1.000000
   61       -0.822646   1.000000
   62       -0.822467   1.000000
   63       -0.791847   1.000000
   64       -0.742859   1.000000
   65       -0.694786   1.000000
   66       -0.694779   1.000000
   67       -0.543799   1.000000
   68       -0.543781   1.000000
   69       -0.513197   1.000000
   70       -0.513174   1.000000
   71       -0.501008   1.000000
   72       -0.500995   1.000000
   73       -0.358666   1.000000
   74       -0.358661   1.000000
   75       -0.318811   1.000000
   76       -0.318789   1.000000
   77       -0.132265   1.000000
   78       -0.132261   1.000000
   79       -0.070884   1.000000
   80       -0.070870   1.000000
   81       -0.050046   1.000000
   82       -0.050017   1.000000
   83       -0.014303   1.000000
   84        0.085449   1.000000
   85        0.085477   1.000000
   86        0.112101   1.000000
   87        0.112240   1.000000
   88        0.172399   1.000000
   89        0.172401   1.000000
   90        0.268625   1.000000
   91        0.268640   1.000000
   92        0.413960   1.000000
   93        0.659608   1.000000
   94        0.730220   1.000000
   95        0.730237   1.000000
   96        0.895886   1.000000
   97        0.896098   1.000000
   98        1.182968   1.000000
   99        1.182972   1.000000
  100        1.236441   1.000000
  101        1.267327   1.000000
  102        1.267357   1.000000
  103        1.698920   1.000000
  104        1.750526   1.000000
  105        3.716101   1.000007
  106        3.716109   1.000008
  107        4.207451   1.020537
  108        4.207465   1.020527
  109        4.250408   0.974848
  110        4.250427   0.974820
  111        4.265017   0.949994
  112        4.307451   0.847680
  113        4.307463   0.847644
  114        4.372373   0.613886
  115        5.578380  -0.000000
  116        5.578786  -0.000000
  117        5.633390  -0.000000
  118        5.638194  -0.000000
  119        5.684675  -0.000000
  120        5.684808  -0.000000
  121        5.764569  -0.000000
  122        5.764612  -0.000000
  123        5.776426  -0.000000
  124        5.776432  -0.000000
  125        5.846969  -0.000000
  126        5.847078  -0.000000
  127        5.855780  -0.000000
  128        5.855792  -0.000000
  129        5.856432  -0.000000
  130        5.856661  -0.000000
  131        6.320991  -0.000000
  132        6.321076  -0.000000
  133        6.343471  -0.000000
  134        6.363110  -0.000000
  135        6.366201  -0.000000
  136        6.457920  -0.000000
  137        6.612102  -0.000000
  138        6.740545  -0.000000
  139        6.740707  -0.000000
  140        7.058115  -0.000000
  141        7.253255  -0.000000
  142        7.379413  -0.000000
  143        7.381402  -0.000000
  144        7.381500  -0.000000
 
  0.3742002E-15  0.3333333E+00  0.3742002E-15  0.7407407E-01
    1      -23.420856   1.000000
    2      -23.383087   1.000000
    3      -23.347958   1.000000
    4      -23.328083   1.000000
    5      -23.315150   1.000000
    6      -23.301472   1.000000
    7      -23.275326   1.000000
    8      -23.249072   1.000000
    9      -15.075120   1.000000
   10      -14.812645   1.000000
   11      -14.755422   1.000000
   12      -14.745691   1.000000
   13      -14.693291   1.000000
   14      -14.515364   1.000000
   15      -14.494570   1.000000
   16      -14.342371   1.000000
   17      -14.330744   1.000000
   18      -14.314706   1.000000
   19      -14.304871   1.000000
   20      -14.298654   1.000000
   21      -14.263426   1.000000
   22      -14.254993   1.000000
   23      -14.225685   1.000000
   24      -14.212882   1.000000
   25       -9.226967   1.000000
   26       -9.157148   1.000000
   27       -9.071553   1.000000
   28       -9.042437   1.000000
   29       -8.941825   1.000000
   30       -8.736972   1.000000
   31       -8.710006   1.000000
   32       -8.692734   1.000000
   33       -8.650689   1.000000
   34       -8.625396   1.000000
   35       -8.579948   1.000000
   36       -8.559679   1.000000
   37       -8.547539   1.000000
   38       -8.525851   1.000000
   39       -8.521711   1.000000
   40       -8.515587   1.000000
   41       -8.480442   1.000000
   42       -8.467242   1.000000
   43       -8.401052   1.000000
   44       -8.391375   1.000000
   45       -8.348900   1.000000
   46       -8.326015   1.000000
   47       -8.268399   1.000000
   48       -8.240855   1.000000
   49       -2.597380   1.000000
   50       -2.067979   1.000000
   51       -1.967115   1.000000
   52       -1.891727   1.000000
   53       -1.711084   1.000000
   54       -1.660486   1.000000
   55       -1.533526   1.000000
   56       -1.523541   1.000000
   57       -1.501474   1.000000
   58       -1.408626   1.000000
   59       -1.302136   1.000000
   60       -1.208917   1.000000
   61       -1.004682   1.000000
   62       -0.958080   1.000000
   63       -0.950484   1.000000
   64       -0.935265   1.000000
   65       -0.836032   1.000000
   66       -0.808407   1.000000
   67       -0.759130   1.000000
   68       -0.709278   1.000000
   69       -0.627866   1.000000
   70       -0.603500   1.000000
   71       -0.591780   1.000000
   72       -0.549945   1.000000
   73       -0.461561   1.000000
   74       -0.397070   1.000000
   75       -0.377010   1.000000
   76       -0.373994   1.000000
   77       -0.300180   1.000000
   78       -0.182624   1.000000
   79       -0.145495   1.000000
   80       -0.131342   1.000000
   81       -0.107751   1.000000
   82       -0.094145   1.000000
   83       -0.039741   1.000000
   84       -0.033799   1.000000
   85        0.021620   1.000000
   86        0.189493   1.000000
   87        0.210428   1.000000
   88        0.341028   1.000000
   89        0.383409   1.000000
   90        0.432787   1.000000
   91        0.456414   1.000000
   92        0.501777   1.000000
   93        0.797911   1.000000
   94        0.828177   1.000000
   95        0.871059   1.000000
   96        0.889744   1.000000
   97        0.908665   1.000000
   98        0.949822   1.000000
   99        1.031414   1.000000
  100        1.090823   1.000000
  101        1.500722   1.000000
  102        1.503912   1.000000
  103        1.505572   1.000000
  104        1.673307   1.000000
  105        3.670396   1.000002
  106        4.021508   1.011210
  107        4.260567   0.958111
  108        4.357690   0.672951
  109        4.458617   0.261797
  110        4.591674  -0.020534
  111        4.646154  -0.035448
  112        4.701608  -0.027194
  113        4.715178  -0.024081
  114        4.718680  -0.023271
  115        4.765556  -0.013307
  116        4.824904  -0.005198
  117        4.846542  -0.003483
  118        4.861002  -0.002623
  119        5.295613  -0.000000
  120        5.298421  -0.000000
  121        5.427379  -0.000000
  122        5.490539  -0.000000
  123        5.529739  -0.000000
  124        5.536394  -0.000000
  125        5.660116  -0.000000
  126        5.703571  -0.000000
  127        5.870827  -0.000000
  128        5.892360  -0.000000
  129        5.901862  -0.000000
  130        6.002724  -0.000000
  131        6.062862  -0.000000
  132        6.102428  -0.000000
  133        6.316479  -0.000000
  134        6.466423  -0.000000
  135        6.517885  -0.000000
  136        6.678948  -0.000000
  137        6.777678  -0.000000
  138        6.907349  -0.000000
  139        7.070998  -0.000000
  140        7.207677  -0.000000
  141        7.590662  -0.000000
  142        7.807991  -0.000000
  143        7.838712  -0.000000
  144        7.874492  -0.000000
 
  0.3333333E+00  0.3333333E+00  0.3742002E-15  0.7407407E-01
    1      -23.398099   1.000000
    2      -23.363105   1.000000
    3      -23.351598   1.000000
    4      -23.330054   1.000000
    5      -23.322168   1.000000
    6      -23.299070   1.000000
    7      -23.293474   1.000000
    8      -23.265761   1.000000
    9      -14.991371   1.000000
   10      -14.825952   1.000000
   11      -14.783726   1.000000
   12      -14.755692   1.000000
   13      -14.650762   1.000000
   14      -14.561992   1.000000
   15      -14.451711   1.000000
   16      -14.361972   1.000000
   17      -14.311184   1.000000
   18      -14.307765   1.000000
   19      -14.297708   1.000000
   20      -14.295134   1.000000
   21      -14.276189   1.000000
   22      -14.273228   1.000000
   23      -14.258107   1.000000
   24      -14.242976   1.000000
   25       -9.095712   1.000000
   26       -9.016377   1.000000
   27       -9.006913   1.000000
   28       -8.990839   1.000000
   29       -8.837513   1.000000
   30       -8.828951   1.000000
   31       -8.748022   1.000000
   32       -8.728291   1.000000
   33       -8.716154   1.000000
   34       -8.709366   1.000000
   35       -8.691037   1.000000
   36       -8.687366   1.000000
   37       -8.637829   1.000000
   38       -8.519158   1.000000
   39       -8.483327   1.000000
   40       -8.436881   1.000000
   41       -8.435044   1.000000
   42       -8.432138   1.000000
   43       -8.394892   1.000000
   44       -8.385745   1.000000
   45       -8.375058   1.000000
   46       -8.355617   1.000000
   47       -8.321415   1.000000
   48       -8.272424   1.000000
   49       -2.435183   1.000000
   50       -2.113521   1.000000
   51       -2.009494   1.000000
   52       -1.923827   1.000000
   53       -1.575482   1.000000
   54       -1.522542   1.000000
   55       -1.516886   1.000000
   56       -1.473018   1.000000
   57       -1.439714   1.000000
   58       -1.396021   1.000000
   59       -1.343610   1.000000
   60       -1.073598   1.000000
   61       -0.959693   1.000000
   62       -0.949506   1.000000
   63       -0.927228   1.000000
   64       -0.890551   1.000000
   65       -0.880996   1.000000
   66       -0.861122   1.000000
   67       -0.749116   1.000000
   68       -0.737729   1.000000
   69       -0.663862   1.000000
   70       -0.575429   1.000000
   71       -0.553601   1.000000
   72       -0.537595   1.000000
   73       -0.382284   1.000000
   74       -0.364000   1.000000
   75       -0.331973   1.000000
   76       -0.291643   1.000000
   77       -0.246333   1.000000
   78       -0.233894   1.000000
   79       -0.164923   1.000000
   80       -0.119394   1.000000
   81       -0.086983   1.000000
   82       -0.086268   1.000000
   83       -0.055786   1.000000
   84       -0.031188   1.000000
   85       -0.015698   1.000000
   86        0.094572   1.000000
   87        0.110224   1.000000
   88        0.251206   1.000000
   89        0.411165   1.000000
   90        0.428132   1.000000
   91        0.496053   1.000000
   92        0.540151   1.000000
   93        0.577129   1.000000
   94        0.605508   1.000000
   95        0.829961   1.000000
   96        0.896501   1.000000
   97        0.926407   1.000000
   98        0.959422   1.000000
   99        0.961415   1.000000
  100        0.985970   1.000000
  101        1.065425   1.000000
  102        1.159285   1.000000
  103        1.513771   1.000000
  104        1.517868   1.000000
  105        3.847828   1.000338
  106        4.113252   1.030563
  107        4.236278   0.994134
  108        4.257183   0.963962
  109        4.282553   0.913197
  110        4.582507  -0.013863
  111        4.607016  -0.028574
  112        4.662061  -0.034408
  113        4.697689  -0.028068
  114        4.784483  -0.010122
  115        5.144504  -0.000001
  116        5.235456  -0.000000
  117        5.403214  -0.000000
  118        5.410630  -0.000000
  119        5.462801  -0.000000
  120        5.510757  -0.000000
  121        5.669619  -0.000000
  122        5.684585  -0.000000
  123        5.695036  -0.000000
  124        5.705940  -0.000000
  125        5.745889  -0.000000
  126        5.808046  -0.000000
  127        5.815525  -0.000000
  128        5.843831  -0.000000
  129        5.918615  -0.000000
  130        5.977103  -0.000000
  131        6.161480  -0.000000
  132        6.267134  -0.000000
  133        6.427401  -0.000000
  134        6.548104  -0.000000
  135        6.788823  -0.000000
  136        6.796230  -0.000000
  137        6.826419  -0.000000
  138        6.867698  -0.000000
  139        7.176841  -0.000000
  140        7.238327  -0.000000
  141        7.307563  -0.000000
  142        7.349766  -0.000000
  143        7.732596  -0.000000
  144        7.820406  -0.000000
 
 -0.3333333E+00  0.3333333E+00  0.3742002E-15  0.7407407E-01
    1      -23.398099   1.000000
    2      -23.363105   1.000000
    3      -23.351598   1.000000
    4      -23.330053   1.000000
    5      -23.322168   1.000000
    6      -23.299070   1.000000
    7      -23.293473   1.000000
    8      -23.265761   1.000000
    9      -14.991371   1.000000
   10      -14.825952   1.000000
   11      -14.783726   1.000000
   12      -14.755691   1.000000
   13      -14.650762   1.000000
   14      -14.561992   1.000000
   15      -14.451711   1.000000
   16      -14.361972   1.000000
   17      -14.311178   1.000000
   18      -14.307771   1.000000
   19      -14.297709   1.000000
   20      -14.295133   1.000000
   21      -14.276189   1.000000
   22      -14.273229   1.000000
   23      -14.258107   1.000000
   24      -14.242975   1.000000
   25       -9.095714   1.000000
   26       -9.016376   1.000000
   27       -9.006911   1.000000
   28       -8.990839   1.000000
   29       -8.837516   1.000000
   30       -8.828948   1.000000
   31       -8.748048   1.000000
   32       -8.728294   1.000000
   33       -8.716140   1.000000
   34       -8.709349   1.000000
   35       -8.691034   1.000000
   36       -8.687366   1.000000
   37       -8.637830   1.000000
   38       -8.519158   1.000000
   39       -8.483326   1.000000
   40       -8.436883   1.000000
   41       -8.435033   1.000000
   42       -8.432146   1.000000
   43       -8.394891   1.000000
   44       -8.385746   1.000000
   45       -8.375073   1.000000
   46       -8.355612   1.000000
   47       -8.321408   1.000000
   48       -8.272426   1.000000
   49       -2.435165   1.000000
   50       -2.113537   1.000000
   51       -2.009515   1.000000
   52       -1.923813   1.000000
   53       -1.575569   1.000000
   54       -1.522544   1.000000
   55       -1.516889   1.000000
   56       -1.472905   1.000000
   57       -1.439714   1.000000
   58       -1.396027   1.000000
   59       -1.343602   1.000000
   60       -1.073476   1.000000
   61       -0.959693   1.000000
   62       -0.949638   1.000000
   63       -0.927227   1.000000
   64       -0.890572   1.000000
   65       -0.880998   1.000000
   66       -0.861121   1.000000
   67       -0.749286   1.000000
   68       -0.737604   1.000000
   69       -0.663861   1.000000
   70       -0.575429   1.000000
   71       -0.553464   1.000000
   72       -0.537693   1.000000
   73       -0.382258   1.000000
   74       -0.364001   1.000000
   75       -0.331972   1.000000
   76       -0.291641   1.000000
   77       -0.246331   1.000000
   78       -0.233893   1.000000
   79       -0.164912   1.000000
   80       -0.119392   1.000000
   81       -0.086989   1.000000
   82       -0.086448   1.000000
   83       -0.055764   1.000000
   84       -0.031064   1.000000
   85       -0.015750   1.000000
   86        0.094346   1.000000
   87        0.110524   1.000000
   88        0.251196   1.000000
   89        0.411165   1.000000
   90        0.428131   1.000000
   91        0.496139   1.000000
   92        0.540094   1.000000
   93        0.577121   1.000000
   94        0.605480   1.000000
   95        0.829977   1.000000
   96        0.896500   1.000000
   97        0.926407   1.000000
   98        0.959422   1.000000
   99        0.961408   1.000000
  100        0.985971   1.000000
  101        1.065412   1.000000
  102        1.159317   1.000000
  103        1.513771   1.000000
  104        1.517869   1.000000
  105        3.847830   1.000338
  106        4.113249   1.030562
  107        4.236273   0.994139
  108        4.257046   0.964193
  109        4.282558   0.913187
  110        4.582444  -0.013812
  111        4.607115  -0.028614
  112        4.662051  -0.034409
  113        4.697688  -0.028068
  114        4.784483  -0.010122
  115        5.144746  -0.000001
  116        5.235515  -0.000000
  117        5.403184  -0.000000
  118        5.410565  -0.000000
  119        5.462800  -0.000000
  120        5.510757  -0.000000
  121        5.669739  -0.000000
  122        5.684450  -0.000000
  123        5.694984  -0.000000
  124        5.705940  -0.000000
  125        5.745889  -0.000000
  126        5.808045  -0.000000
  127        5.815462  -0.000000
  128        5.843832  -0.000000
  129        5.918613  -0.000000
  130        5.977104  -0.000000
  131        6.161481  -0.000000
  132        6.267133  -0.000000
  133        6.427465  -0.000000
  134        6.548087  -0.000000
  135        6.788814  -0.000000
  136        6.796137  -0.000000
  137        6.826482  -0.000000
  138        6.867707  -0.000000
  139        7.176785  -0.000000
  140        7.238308  -0.000000
  141        7.307540  -0.000000
  142        7.349839  -0.000000
  143        7.732773  -0.000000
  144        7.820398  -0.000000
 
  0.3742002E-15  0.3742002E-15  0.3333333E+00  0.7407407E-01
    1      -23.420826   1.000000
    2      -23.383163   1.000000
    3      -23.347917   1.000000
    4      -23.327993   1.000000
    5      -23.315257   1.000000
    6      -23.301503   1.000000
    7      -23.275224   1.000000
    8      -23.249120   1.000000
    9      -15.075121   1.000000
   10      -14.812654   1.000000
   11      -14.755440   1.000000
   12      -14.745701   1.000000
   13      -14.693264   1.000000
   14      -14.515336   1.000000
   15      -14.494557   1.000000
   16      -14.342401   1.000000
   17      -14.330768   1.000000
   18      -14.314687   1.000000
   19      -14.304852   1.000000
   20      -14.298642   1.000000
   21      -14.263475   1.000000
   22      -14.254962   1.000000
   23      -14.225683   1.000000
   24      -14.212890   1.000000
   25       -9.226944   1.000000
   26       -9.157156   1.000000
   27       -9.071565   1.000000
   28       -9.042435   1.000000
   29       -8.941820   1.000000
   30       -8.736983   1.000000
   31       -8.709994   1.000000
   32       -8.692726   1.000000
   33       -8.650723   1.000000
   34       -8.625434   1.000000
   35       -8.579981   1.000000
   36       -8.559601   1.000000
   37       -8.547472   1.000000
   38       -8.525888   1.000000
   39       -8.521504   1.000000
   40       -8.515806   1.000000
   41       -8.480365   1.000000
   42       -8.467293   1.000000
   43       -8.401083   1.000000
   44       -8.391336   1.000000
   45       -8.348965   1.000000
   46       -8.325998   1.000000
   47       -8.268393   1.000000
   48       -8.240863   1.000000
   49       -2.597384   1.000000
   50       -2.068004   1.000000
   51       -1.967125   1.000000
   52       -1.891741   1.000000
   53       -1.711086   1.000000
   54       -1.660431   1.000000
   55       -1.533486   1.000000
   56       -1.523526   1.000000
   57       -1.501446   1.000000
   58       -1.408602   1.000000
   59       -1.302124   1.000000
   60       -1.208849   1.000000
   61       -1.004688   1.000000
   62       -0.958078   1.000000
   63       -0.950495   1.000000
   64       -0.935333   1.000000
   65       -0.836019   1.000000
   66       -0.808511   1.000000
   67       -0.759129   1.000000
   68       -0.709227   1.000000
   69       -0.627844   1.000000
   70       -0.603498   1.000000
   71       -0.591789   1.000000
   72       -0.549965   1.000000
   73       -0.461565   1.000000
   74       -0.397073   1.000000
   75       -0.376994   1.000000
   76       -0.373985   1.000000
   77       -0.300204   1.000000
   78       -0.182622   1.000000
   79       -0.145520   1.000000
   80       -0.131360   1.000000
   81       -0.107776   1.000000
   82       -0.094231   1.000000
   83       -0.039738   1.000000
   84       -0.033625   1.000000
   85        0.021552   1.000000
   86        0.189515   1.000000
   87        0.210413   1.000000
   88        0.341027   1.000000
   89        0.383396   1.000000
   90        0.432775   1.000000
   91        0.456425   1.000000
   92        0.501787   1.000000
   93        0.797894   1.000000
   94        0.828170   1.000000
   95        0.871052   1.000000
   96        0.889739   1.000000
   97        0.908601   1.000000
   98        0.949828   1.000000
   99        1.031423   1.000000
  100        1.090839   1.000000
  101        1.500774   1.000000
  102        1.503915   1.000000
  103        1.505581   1.000000
  104        1.673298   1.000000
  105        3.670408   1.000002
  106        4.021498   1.011209
  107        4.260583   0.958083
  108        4.357672   0.673023
  109        4.458596   0.261872
  110        4.591674  -0.020534
  111        4.646155  -0.035448
  112        4.701658  -0.027182
  113        4.715350  -0.024041
  114        4.718505  -0.023311
  115        4.765558  -0.013306
  116        4.824905  -0.005197
  117        4.846579  -0.003481
  118        4.860959  -0.002625
  119        5.295830  -0.000000
  120        5.298206  -0.000000
  121        5.427381  -0.000000
  122        5.490545  -0.000000
  123        5.529742  -0.000000
  124        5.536400  -0.000000
  125        5.660104  -0.000000
  126        5.703560  -0.000000
  127        5.870820  -0.000000
  128        5.892355  -0.000000
  129        5.901857  -0.000000
  130        6.002721  -0.000000
  131        6.062950  -0.000000
  132        6.102427  -0.000000
  133        6.316478  -0.000000
  134        6.466291  -0.000000
  135        6.517933  -0.000000
  136        6.678939  -0.000000
  137        6.777676  -0.000000
  138        6.907339  -0.000000
  139        7.070979  -0.000000
  140        7.207672  -0.000000
  141        7.590715  -0.000000
  142        7.807998  -0.000000
  143        7.838822  -0.000000
  144        7.874383  -0.000000
 
  0.3333333E+00  0.3742002E-15  0.3333333E+00  0.1481481E+00
    1      -23.398063   1.000000
    2      -23.363092   1.000000
    3      -23.351754   1.000000
    4      -23.329858   1.000000
    5      -23.322365   1.000000
    6      -23.298767   1.000000
    7      -23.293618   1.000000
    8      -23.265810   1.000000
    9      -14.991373   1.000000
   10      -14.825957   1.000000
   11      -14.783738   1.000000
   12      -14.755711   1.000000
   13      -14.650735   1.000000
   14      -14.561964   1.000000
   15      -14.451697   1.000000
   16      -14.361956   1.000000
   17      -14.311218   1.000000
   18      -14.307816   1.000000
   19      -14.297678   1.000000
   20      -14.295099   1.000000
   21      -14.276300   1.000000
   22      -14.273132   1.000000
   23      -14.258116   1.000000
   24      -14.242977   1.000000
   25       -9.095692   1.000000