 running on   16 total cores
 distrk:  each k-point on   16 cores,    1 groups
 distr:  one band on    1 cores,   16 groups
 using from now: INCAR     
 vasp.5.4.1 05Feb16 (build Nov 07 2016 16:53:41) complex                        
  
 POSCAR found type information on POSCAR  Ba Ti O  H 
 POSCAR found :  4 types and      40 ions
 scaLAPACK will be used

 ----------------------------------------------------------------------------- 
|                                                                             |
|           W    W    AA    RRRRR   N    N  II  N    N   GGGG   !!!           |
|           W    W   A  A   R    R  NN   N  II  NN   N  G    G  !!!           |
|           W    W  A    A  R    R  N N  N  II  N N  N  G       !!!           |
|           W WW W  AAAAAA  RRRRR   N  N N  II  N  N N  G  GGG   !            |
|           WW  WW  A    A  R   R   N   NN  II  N   NN  G    G                |
|           W    W  A    A  R    R  N    N  II  N    N   GGGG   !!!           |
|                                                                             |
|      For optimal performance we recommend to set                            |
|        NCORE= 4 - approx SQRT( number of cores)                             |
|      NCORE specifies how many cores store one orbital (NPAR=cpu/NCORE).     |
|      This setting can  greatly improve the performance of VASP for DFT.     |
|      The default, NPAR=number of cores might be grossly inefficient         |
|      on modern multi-core architectures or massively parallel machines.     |
|      Do your own testing !!!!                                               |
|      Unfortunately you need to use the default for GW and RPA calculations. |
|      (for HF NCORE is supported but not extensively tested yet)             |
|                                                                             |
 ----------------------------------------------------------------------------- 


 ----------------------------------------------------------------------------- 
|                                                                             |
|  ADVICE TO THIS USER RUNNING 'VASP/VAMP'   (HEAR YOUR MASTER'S VOICE ...):  |
|                                                                             |
|      You have a (more or less) 'large supercell' and for larger cells       |
|      it might be more efficient to use real space projection opertators     |
|      So try LREAL= Auto  in the INCAR   file.                               |
|      Mind: At the moment your POTCAR file does not contain real space       |
|       projectors, and has to be modified,  BUT if you                       |
|      want to do an extremely  accurate calculation you might also keep the  |
|      reciprocal projection scheme          (i.e. LREAL=.FALSE.)             |
|                                                                             |
 ----------------------------------------------------------------------------- 

 LDA part: xc-table for Pade appr. of Perdew
 found WAVECAR, reading the header
  number of k-points has changed, file:    14 present:    10
  trying to continue reading WAVECAR, but it might fail
 POSCAR, INCAR and KPOINTS ok, starting setup
 FFT: planning ...
 reading WAVECAR
 the WAVECAR file was read successfully
 initial charge from wavefunction
 entering main loop
       N       E                     dE             d eps       ncg     rms          rms(c)
DAV:   1    -0.264462526794E+03   -0.26446E+03   -0.42912E+02  3296   0.329E+01BRMIX: very serious problems
 the old and the new charge density differ
 old charge density:   216.65757 new  215.99999
    0.431E+00
DAV:   2    -0.270330268481E+03   -0.58677E+01   -0.64432E+01  3632   0.142E+01    0.837E+00
DAV:   3    -0.269823655073E+03    0.50661E+00   -0.86657E+00  4048   0.624E+00    0.519E+00
DAV:   4    -0.269637231144E+03    0.18642E+00   -0.30862E+00  3824   0.284E+00    0.302E+00
DAV:   5    -0.269549876347E+03    0.87355E-01   -0.83306E-01  3872   0.173E+00    0.181E+00
DAV:   6    -0.269532897263E+03    0.16979E-01   -0.33912E-01  3856   0.110E+00    0.141E+00
DAV:   7    -0.269519913040E+03    0.12984E-01   -0.16563E-01  3680   0.949E-01    0.991E-01
DAV:   8    -0.269518318664E+03    0.15944E-02   -0.15939E-01  3728   0.640E-01    0.922E-01
DAV:   9    -0.269511617451E+03    0.67012E-02   -0.83124E-02  3840   0.442E-01    0.487E-01
DAV:  10    -0.269509318146E+03    0.22993E-02   -0.18455E-02  3936   0.233E-01    0.210E-01
DAV:  11    -0.269509581712E+03   -0.26357E-03   -0.65257E-03  4016   0.157E-01    0.234E-01
DAV:  12    -0.269508960743E+03    0.62097E-03   -0.25303E-03  3936   0.112E-01    0.696E-02
DAV:  13    -0.269508985926E+03   -0.25183E-04   -0.87742E-04  4448   0.618E-02    0.886E-02
DAV:  14    -0.269508924611E+03    0.61315E-04   -0.84384E-04  3872   0.532E-02    0.442E-02
DAV:  15    -0.269508900344E+03    0.24267E-04   -0.13690E-04  3760   0.228E-02    0.988E-03
DAV:  16    -0.269508898537E+03    0.18067E-05   -0.93886E-06  3824   0.886E-03    0.323E-03
DAV:  17    -0.269508898459E+03    0.78489E-07   -0.15011E-06  3392   0.359E-03    0.210E-03
DAV:  18    -0.269508898553E+03   -0.94840E-07   -0.41471E-07  2640   0.214E-03
   1 F= -.26950890E+03 E0= -.26951705E+03  d E =0.244405E-01
 writing wavefunctions
